
                                 *****************
                                 * O   R   C   A *
                                 *****************

                                            #,                                       
                                            ###                                      
                                            ####                                     
                                            #####                                    
                                            ######                                   
                                           ########,                                 
                                     ,,################,,,,,                         
                               ,,#################################,,                 
                          ,,##########################################,,             
                       ,#########################################, ''#####,          
                    ,#############################################,,   '####,        
                  ,##################################################,,,,####,       
                ,###########''''           ''''###############################       
              ,#####''   ,,,,##########,,,,          '''####'''          '####       
            ,##' ,,,,###########################,,,                        '##       
           ' ,,###''''                  '''############,,,                           
         ,,##''                                '''############,,,,        ,,,,,,###''
      ,#''                                            '''#######################'''  
     '                                                          ''''####''''         
             ,#######,   #######,   ,#######,      ##                                
            ,#'     '#,  ##    ##  ,#'     '#,    #''#        ######   ,####,        
            ##       ##  ##   ,#'  ##            #'  '#       #        #'  '#        
            ##       ##  #######   ##           ,######,      #####,   #    #        
            '#,     ,#'  ##    ##  '#,     ,#' ,#      #,         ##   #,  ,#        
             '#######'   ##     ##  '#######'  #'      '#     #####' # '####'        



                  #######################################################
                  #                        -***-                        #
                  #          Department of theory and spectroscopy      #
                  #    Directorship and core code : Frank Neese         #
                  #        Max Planck Institute fuer Kohlenforschung    #
                  #                Kaiser Wilhelm Platz 1               #
                  #                 D-45470 Muelheim/Ruhr               #
                  #                      Germany                        #
                  #                                                     #
                  #                  All rights reserved                #
                  #                        -***-                        #
                  #######################################################


                         Program Version 5.0.3 -  RELEASE  -


 With contributions from (in alphabetic order):
   Daniel Aravena         : Magnetic Suceptibility
   Michael Atanasov       : Ab Initio Ligand Field Theory (pilot matlab implementation)
   Alexander A. Auer      : GIAO ZORA, VPT2 properties, NMR spectrum
   Ute Becker             : Parallelization
   Giovanni Bistoni       : ED, misc. LED, open-shell LED, HFLD
   Martin Brehm           : Molecular dynamics
   Dmytro Bykov           : SCF Hessian
   Vijay G. Chilkuri      : MRCI spin determinant printing, contributions to CSF-ICE
   Dipayan Datta          : RHF DLPNO-CCSD density
   Achintya Kumar Dutta   : EOM-CC, STEOM-CC
   Dmitry Ganyushin       : Spin-Orbit,Spin-Spin,Magnetic field MRCI
   Miquel Garcia          : C-PCM and meta-GGA Hessian, CC/C-PCM, Gaussian charge scheme
   Yang Guo               : DLPNO-NEVPT2, F12-NEVPT2, CIM, IAO-localization
   Andreas Hansen         : Spin unrestricted coupled pair/coupled cluster methods
   Benjamin Helmich-Paris : MC-RPA, TRAH-SCF, COSX integrals
   Lee Huntington         : MR-EOM, pCC
   Robert Izsak           : Overlap fitted RIJCOSX, COSX-SCS-MP3, EOM
   Marcus Kettner         : VPT2
   Christian Kollmar      : KDIIS, OOCD, Brueckner-CCSD(T), CCSD density, CASPT2, CASPT2-K
   Simone Kossmann        : Meta GGA functionals, TD-DFT gradient, OOMP2, MP2 Hessian
   Martin Krupicka        : Initial AUTO-CI
   Lucas Lang             : DCDCAS
   Marvin Lechner         : AUTO-CI (C++ implementation), FIC-MRCC
   Dagmar Lenk            : GEPOL surface, SMD
   Dimitrios Liakos       : Extrapolation schemes; Compound Job, initial MDCI parallelization
   Dimitrios Manganas     : Further ROCIS development; embedding schemes
   Dimitrios Pantazis     : SARC Basis sets
   Anastasios Papadopoulos: AUTO-CI, single reference methods and gradients
   Taras Petrenko         : DFT Hessian,TD-DFT gradient, ASA, ECA, R-Raman, ABS, FL, XAS/XES, NRVS
   Peter Pinski           : DLPNO-MP2, DLPNO-MP2 Gradient
   Christoph Reimann      : Effective Core Potentials
   Marius Retegan         : Local ZFS, SOC
   Christoph Riplinger    : Optimizer, TS searches, QM/MM, DLPNO-CCSD(T), (RO)-DLPNO pert. Triples
   Tobias Risthaus        : Range-separated hybrids, TD-DFT gradient, RPA, STAB
   Michael Roemelt        : Original ROCIS implementation
   Masaaki Saitow         : Open-shell DLPNO-CCSD energy and density
   Barbara Sandhoefer     : DKH picture change effects
   Avijit Sen             : IP-ROCIS
   Kantharuban Sivalingam : CASSCF convergence, NEVPT2, FIC-MRCI
   Bernardo de Souza      : ESD, SOC TD-DFT
   Georgi Stoychev        : AutoAux, RI-MP2 NMR, DLPNO-MP2 response
   Willem Van den Heuvel  : Paramagnetic NMR
   Boris Wezisla          : Elementary symmetry handling
   Frank Wennmohs         : Technical directorship


 We gratefully acknowledge several colleagues who have allowed us to
 interface, adapt or use parts of their codes:
   Stefan Grimme, W. Hujo, H. Kruse, P. Pracht,  : VdW corrections, initial TS optimization,
                  C. Bannwarth, S. Ehlert          DFT functionals, gCP, sTDA/sTD-DF
   Ed Valeev, F. Pavosevic, A. Kumar             : LibInt (2-el integral package), F12 methods
   Garnet Chan, S. Sharma, J. Yang, R. Olivares  : DMRG
   Ulf Ekstrom                                   : XCFun DFT Library
   Mihaly Kallay                                 : mrcc  (arbitrary order and MRCC methods)
   Jiri Pittner, Ondrej Demel                    : Mk-CCSD
   Frank Weinhold                                : gennbo (NPA and NBO analysis)
   Christopher J. Cramer and Donald G. Truhlar   : smd solvation model
   Lars Goerigk                                  : TD-DFT with DH, B97 family of functionals
   V. Asgeirsson, H. Jonsson                     : NEB implementation
   FAccTs GmbH                                   : IRC, NEB, NEB-TS, DLPNO-Multilevel, CI-OPT
                                                   MM, QMMM, 2- and 3-layer-ONIOM, Crystal-QMMM,
                                                   LR-CPCM, SF, NACMEs, symmetry and pop. for TD-DFT,
                                                   nearIR, NL-DFT gradient (VV10), updates on ESD,
                                                   ML-optimized integration grids
   S Lehtola, MJT Oliveira, MAL Marques          : LibXC Library
   Liviu Ungur et al                             : ANISO software


 Your calculation uses the libint2 library for the computation of 2-el integrals
 For citations please refer to: http://libint.valeyev.net

 Your ORCA version has been built with support for libXC version: 5.1.0
 For citations please refer to: https://tddft.org/programs/libxc/

 This ORCA versions uses:
   CBLAS   interface :  Fast vector & matrix operations
   LAPACKE interface :  Fast linear algebra routines
   SCALAPACK package :  Parallel linear algebra routines
   Shared memory     :  Shared parallel matrices
   BLAS/LAPACK       :  OpenBLAS 0.3.15  USE64BITINT DYNAMIC_ARCH NO_AFFINITY Haswell SINGLE_THREADED
        Core in use  :  Haswell
   Copyright (c) 2011-2014, The OpenBLAS Project


================================================================================

----- Orbital basis set information -----
Your calculation utilizes the basis: 6-31G
   H-He, Li-Ne : W. J. Hehre, R. Ditchfield and J.A. Pople, J. Chem. Phys. 56, 2257 (1972).
                 Note: He and Ne are unpublished basis sets taken from the Gaussian program.
                 Note: Li and B from J. D. Dill and J. A. Pople, J. Chem. Phys. 62, 2921 (1975).
   Na - Ar     : M. M. Francl, W. J. Pietro, W. J. Hehre, J. S. Binkley, M. S. Gordon, 
                 D. J. DeFrees and J. A. Pople, J. Chem. Phys. 77, 3654 (1982).
   K - Zn      : V. A. Rassolov, J. A. Pople, M. A. Ratner, and T. L. Windus, J. Chem. Phys. 109, 1223 (1998).

----- AuxJ basis set information -----
Your calculation utilizes the auxiliary basis: def2/J
   F. Weigend, Phys. Chem. Chem. Phys. 8, 1057 (2006).

================================================================================
                                        WARNINGS
                       Please study these warnings very carefully!
================================================================================

INFO   : Checking CIS options ...

INFO   : the flag for use of the SHARK integral package has been found!

================================================================================
                                       INPUT FILE
================================================================================
NAME = acrolien.1100.com
|  1> ! B3LYP 6-31G
|  2> !TightSCF
|  3> %scf
|  4>  ConvForced true
|  5>  convergence tight
|  6>  MaxIter 500
|  7> end
|  8>  
|  9> %tddft 
| 10>  nroots 1
| 11> end
| 12> 
| 13> # 	31252
| 14> * xyz 0 1
| 15> 		C   -0.617587  -0.407666   0.001834
| 16> 		O   -0.508386  -1.604787  -0.009769
| 17> 		C    0.576600   0.413506   0.003674
| 18> 		C    1.846857  -0.194540  -0.008189
| 19> 		H   -1.560495   0.281469   0.082995
| 20> 		H    0.412210   1.511682  -0.031162
| 21> 		H    1.799937  -1.266501   0.192000
| 22> 		H    2.817222   0.472762  -0.065825
| 23> *
| 24> 
| 25>                          ****END OF INPUT****
================================================================================

                       ****************************
                       * Single Point Calculation *
                       ****************************

---------------------------------
CARTESIAN COORDINATES (ANGSTROEM)
---------------------------------
  C     -0.617587   -0.407666    0.001834
  O     -0.508386   -1.604787   -0.009769
  C      0.576600    0.413506    0.003674
  C      1.846857   -0.194540   -0.008189
  H     -1.560495    0.281469    0.082995
  H      0.412210    1.511682   -0.031162
  H      1.799937   -1.266501    0.192000
  H      2.817222    0.472762   -0.065825

----------------------------
CARTESIAN COORDINATES (A.U.)
----------------------------
  NO LB      ZA    FRAG     MASS         X           Y           Z
   0 C     6.0000    0    12.011   -1.167070   -0.770377    0.003466
   1 O     8.0000    0    15.999   -0.960710   -3.032608   -0.018461
   2 C     6.0000    0    12.011    1.089616    0.781413    0.006943
   3 C     6.0000    0    12.011    3.490054   -0.367627   -0.015475
   4 H     1.0000    0     1.008   -2.948908    0.531899    0.156838
   5 H     1.0000    0     1.008    0.778964    2.856665   -0.058888
   6 H     1.0000    0     1.008    3.401388   -2.393340    0.362827
   7 H     1.0000    0     1.008    5.323778    0.893391   -0.124391

--------------------------------
INTERNAL COORDINATES (ANGSTROEM)
--------------------------------
 C      0   0   0     0.000000000000     0.00000000     0.00000000
 O      1   0   0     1.202147319030     0.00000000     0.00000000
 C      1   2   0     1.449278934558   119.30121342     0.00000000
 C      3   1   2     1.408337145336   119.90460390     0.00000000
 H      1   2   3     1.170713309316   131.30106912   184.58036165
 H      3   1   2     1.110958210723   115.98410923   177.37214420
 H      4   3   1     1.091502408445   112.56311319   347.97777133
 H      4   3   1     1.179076800266   119.89158998   176.68400520

---------------------------
INTERNAL COORDINATES (A.U.)
---------------------------
 C      0   0   0     0.000000000000     0.00000000     0.00000000
 O      1   0   0     2.271729205594     0.00000000     0.00000000
 C      1   2   0     2.738740277975   119.30121342     0.00000000
 C      3   1   2     2.661371508914   119.90460390     0.00000000
 H      1   2   3     2.212327535944   131.30106912   184.58036165
 H      3   1   2     2.099406764497   115.98410923   177.37214420
 H      4   3   1     2.062640626477   112.56311319   347.97777133
 H      4   3   1     2.228132243363   119.89158998   176.68400520

---------------------
BASIS SET INFORMATION
---------------------
There are 3 groups of distinct atoms

 Group   1 Type C   : 10s4p contracted to 3s2p pattern {631/31}
 Group   2 Type O   : 10s4p contracted to 3s2p pattern {631/31}
 Group   3 Type H   : 4s contracted to 2s pattern {31}

Atom   0C    basis set group =>   1
Atom   1O    basis set group =>   2
Atom   2C    basis set group =>   1
Atom   3C    basis set group =>   1
Atom   4H    basis set group =>   3
Atom   5H    basis set group =>   3
Atom   6H    basis set group =>   3
Atom   7H    basis set group =>   3
---------------------------------
AUXILIARY/J BASIS SET INFORMATION
---------------------------------
There are 3 groups of distinct atoms

 Group   1 Type C   : 12s5p4d2f1g contracted to 6s4p3d1f1g pattern {711111/2111/211/2/1}
 Group   2 Type O   : 12s5p4d2f1g contracted to 6s4p3d1f1g pattern {711111/2111/211/2/1}
 Group   3 Type H   : 5s2p1d contracted to 3s1p1d pattern {311/2/1}

Atom   0C    basis set group =>   1
Atom   1O    basis set group =>   2
Atom   2C    basis set group =>   1
Atom   3C    basis set group =>   1
Atom   4H    basis set group =>   3
Atom   5H    basis set group =>   3
Atom   6H    basis set group =>   3
Atom   7H    basis set group =>   3
------------------------------------------------------------------------------
                           ORCA GTO INTEGRAL CALCULATION
                           -- RI-GTO INTEGRALS CHOSEN --
------------------------------------------------------------------------------
------------------------------------------------------------------------------
                   ___                                                        
                  /   \      - P O W E R E D   B Y -                         
                 /     \                                                     
                 |  |  |   _    _      __       _____    __    __             
                 |  |  |  | |  | |    /  \     |  _  \  |  |  /  |          
                  \  \/   | |  | |   /    \    | | | |  |  | /  /          
                 / \  \   | |__| |  /  /\  \   | |_| |  |  |/  /          
                |  |  |   |  __  | /  /__\  \  |    /   |      \           
                |  |  |   | |  | | |   __   |  |    \   |  |\   \          
                \     /   | |  | | |  |  |  |  | |\  \  |  | \   \       
                 \___/    |_|  |_| |__|  |__|  |_| \__\ |__|  \__/        
                                                                              
                      - O R C A' S   B I G   F R I E N D -                    
                                      &                                       
                       - I N T E G R A L  F E E D E R -                       
                                                                              
 v1 FN, 2020, v2 2021                                                         
------------------------------------------------------------------------------


Reading SHARK input file acrolien.1100.SHARKINP.tmp ... ok
----------------------
SHARK INTEGRAL PACKAGE
----------------------

Number of atoms                             ...      8
Number of basis functions                   ...     44
Number of shells                            ...     28
Maximum angular momentum                    ...      1
Integral batch strategy                     ... SHARK/LIBINT Hybrid
RI-J (if used) integral strategy            ... SPLIT-RIJ (Revised 2003 algorithm where possible)
Printlevel                                  ...      1
Contraction scheme used                     ... SEGMENTED contraction
Coulomb Range Separation                    ... NOT USED
Exchange Range Separation                   ... NOT USED
Finite Nucleus Model                        ... NOT USED
Auxiliary Coulomb fitting basis             ... AVAILABLE
   # of basis functions in Aux-J            ...    240
   # of shells in Aux-J                     ...     80
   Maximum angular momentum in Aux-J        ...      4
Auxiliary J/K fitting basis                 ... NOT available
Auxiliary Correlation fitting basis         ... NOT available
Auxiliary 'external' fitting basis          ... NOT available
Integral threshold                          ...     2.500000e-11
Primitive cut-off                           ...     2.500000e-12
Primitive pair pre-selection threshold      ...     2.500000e-12

Calculating pre-screening integrals         ... done (  0.0 sec) Dimension = 28
Organizing shell pair data                  ... done (  0.0 sec)
Shell pair information
Total number of shell pairs                 ...       406
Shell pairs after pre-screening             ...       402
Total number of primitive shell pairs       ...      2724
Primitive shell pairs kept                  ...      2011
          la=0 lb=0:    206 shell pairs
          la=1 lb=0:    160 shell pairs
          la=1 lb=1:     36 shell pairs

Calculating one electron integrals          ... done (  0.0 sec)
Calculating RI/J V-Matrix + Cholesky decomp.... done (  0.1 sec)
Calculating Nuclear repulsion               ... done (  0.0 sec) ENN=    104.636246821156 Eh

SHARK setup successfully completed in   1.1 seconds

Maximum memory used throughout the entire GTOINT-calculation: 8.3 MB
-------------------------------------------------------------------------------
                                 ORCA SCF
-------------------------------------------------------------------------------

------------
SCF SETTINGS
------------
Hamiltonian:
 Density Functional     Method          .... DFT(GTOs)
 Exchange Functional    Exchange        .... B88
   X-Alpha parameter    XAlpha          ....  0.666667
   Becke's b parameter  XBeta           ....  0.004200
 Correlation Functional Correlation     .... LYP
 LDA part of GGA corr.  LDAOpt          .... VWN-5
 Gradients option       PostSCFGGA      .... off
 Hybrid DFT is turned on
   Fraction HF Exchange ScalHFX         ....  0.200000
   Scaling of DF-GGA-X  ScalDFX         ....  0.720000
   Scaling of DF-GGA-C  ScalDFC         ....  0.810000
   Scaling of DF-LDA-C  ScalLDAC        ....  1.000000
   Perturbative correction              ....  0.000000
   Density functional embedding theory  .... OFF
   NL short-range parameter             ....  4.800000
 RI-approximation to the Coulomb term is turned on
   Number of AuxJ basis functions       .... 240
   RIJ-COSX (HFX calculated with COS-X)).... on


General Settings:
 Integral files         IntName         .... acrolien.1100
 Hartree-Fock type      HFTyp           .... RHF
 Total Charge           Charge          ....    0
 Multiplicity           Mult            ....    1
 Number of Electrons    NEL             ....   30
 Basis Dimension        Dim             ....   44
 Nuclear Repulsion      ENuc            ....    104.6362468212 Eh

Convergence Acceleration:
 DIIS                   CNVDIIS         .... on
   Start iteration      DIISMaxIt       ....    12
   Startup error        DIISStart       ....  0.200000
   # of expansion vecs  DIISMaxEq       ....     5
   Bias factor          DIISBfac        ....   1.050
   Max. coefficient     DIISMaxC        ....  10.000
 Trust-Rad. Augm. Hess. CNVTRAH         .... auto
   Auto Start mean grad. ratio tolernc. ....  1.125000
   Auto Start start iteration           ....    20
   Auto Start num. interpolation iter.  ....    10
   Max. Number of Micro iterations      ....    16
   Max. Number of Macro iterations      .... Maxiter - #DIIS iter
   Number of Davidson start vectors     ....     2
   Converg. threshold I  (grad. norm)   ....   1.000e-05
   Converg. threshold II (energy diff.) ....   1.000e-08
   Grad. Scal. Fac. for Micro threshold ....   0.100
   Minimum threshold for Micro iter.    ....   0.010
   NR start threshold (gradient norm)   ....   0.001
   Initial trust radius                 ....   0.400
   Minimum AH scaling param. (alpha)    ....   1.000
   Maximum AH scaling param. (alpha)    .... 1000.000
   Orbital update algorithm             .... Taylor
   White noise on init. David. guess    .... on
   Maximum white noise                  ....   0.010
   Quad. conv. algorithm                .... NR
 SOSCF                  CNVSOSCF        .... on
   Start iteration      SOSCFMaxIt      ....   150
   Startup grad/error   SOSCFStart      ....  0.003300
 Level Shifting         CNVShift        .... on
   Level shift para.    LevelShift      ....    0.2500
   Turn off err/grad.   ShiftErr        ....    0.0010
 Zerner damping         CNVZerner       .... off
 Static damping         CNVDamp         .... on
   Fraction old density DampFac         ....    0.7000
   Max. Damping (<1)    DampMax         ....    0.9800
   Min. Damping (>=0)   DampMin         ....    0.0000
   Turn off err/grad.   DampErr         ....    0.1000
 Fernandez-Rico         CNVRico         .... off

SCF Procedure:
 Maximum # iterations   MaxIter         ....   500
 SCF integral mode      SCFMode         .... Direct
   Integral package                     .... SHARK and LIBINT hybrid scheme
 Reset frequency        DirectResetFreq ....    20
 Integral Threshold     Thresh          ....  2.500e-11 Eh
 Primitive CutOff       TCut            ....  2.500e-12 Eh

Convergence Tolerance:
 Convergence Check Mode ConvCheckMode   .... Total+1el-Energy
 Convergence forced     ConvForced      .... 1
 Energy Change          TolE            ....  1.000e-08 Eh
 1-El. energy change                    ....  1.000e-05 Eh
 Orbital Gradient       TolG            ....  1.000e-05
 Orbital Rotation angle TolX            ....  1.000e-05
 DIIS Error             TolErr          ....  5.000e-07


Diagonalization of the overlap matrix:
Smallest eigenvalue                        ... 4.965e-03
Time for diagonalization                   ...    0.055 sec
Threshold for overlap eigenvalues          ... 1.000e-08
Number of eigenvalues below threshold      ... 0
Time for construction of square roots      ...    0.061 sec
Total time needed                          ...    0.117 sec

Time for model grid setup =    0.058 sec

------------------------------
INITIAL GUESS: MODEL POTENTIAL
------------------------------
Loading Hartree-Fock densities                     ... done
Calculating cut-offs                               ... done
Initializing the effective Hamiltonian             ... done
Setting up the integral package (SHARK)            ... done
Starting the Coulomb interaction                   ... done (   0.5 sec)
Reading the grid                                   ... done
Mapping shells                                     ... done
Starting the XC term evaluation                    ... done (   0.0 sec)
  promolecular density results
     # of electrons  =     29.999197243
     EX              =    -24.710782444
     EC              =     -0.994385436
     EX+EC           =    -25.705167880
Transforming the Hamiltonian                       ... done (   0.4 sec)
Diagonalizing the Hamiltonian                      ... done (   0.0 sec)
Back transforming the eigenvectors                 ... done (   0.0 sec)
Now organizing SCF variables                       ... done
                      ------------------
                      INITIAL GUESS DONE (   1.2 sec)
                      ------------------
-------------------
DFT GRID GENERATION
-------------------

General Integration Accuracy     IntAcc      ... 4.388
Radial Grid Type                 RadialGrid  ... OptM3 with GC (2021)
Angular Grid (max. ang.)         AngularGrid ... 4 (Lebedev-302)
Angular grid pruning method      GridPruning ... 4 (adaptive)
Weight generation scheme         WeightScheme... Becke
Basis function cutoff            BFCut       ... 1.0000e-11
Integration weight cutoff        WCut        ... 1.0000e-14
Angular grids for H and He will be reduced by one unit
Partially contracted basis set               ... off
Rotationally invariant grid construction     ... off

Total number of grid points                  ...    37393
Total number of batches                      ...      588
Average number of points per batch           ...       63
Average number of grid points per atom       ...     4674
Time for grid setup =    0.674 sec

--------------------
COSX GRID GENERATION
--------------------

GRIDX 1
-------
General Integration Accuracy     IntAcc      ... 3.816
Radial Grid Type                 RadialGrid  ... OptM3 with GC (2021)
Angular Grid (max. ang.)         AngularGrid ... 1 (Lebedev-50)
Angular grid pruning method      GridPruning ... 4 (adaptive)
Weight generation scheme         WeightScheme... Becke
Basis function cutoff            BFCut       ... 1.0000e-11
Integration weight cutoff        WCut        ... 1.0000e-14
Angular grids for H and He will be reduced by one unit
Partially contracted basis set               ... on
Rotationally invariant grid construction     ... off

Total number of grid points                  ...     4806
Total number of batches                      ...       79
Average number of points per batch           ...       60
Average number of grid points per atom       ...      601
UseSFitting                                  ... on

GRIDX 2
-------
General Integration Accuracy     IntAcc      ... 4.020
Radial Grid Type                 RadialGrid  ... OptM3 with GC (2021)
Angular Grid (max. ang.)         AngularGrid ... 2 (Lebedev-110)
Angular grid pruning method      GridPruning ... 4 (adaptive)
Weight generation scheme         WeightScheme... Becke
Basis function cutoff            BFCut       ... 1.0000e-11
Integration weight cutoff        WCut        ... 1.0000e-14
Angular grids for H and He will be reduced by one unit
Partially contracted basis set               ... on
Rotationally invariant grid construction     ... off

Total number of grid points                  ...    10563
Total number of batches                      ...      168
Average number of points per batch           ...       62
Average number of grid points per atom       ...     1320
UseSFitting                                  ... on

GRIDX 3
-------
General Integration Accuracy     IntAcc      ... 4.338
Radial Grid Type                 RadialGrid  ... OptM3 with GC (2021)
Angular Grid (max. ang.)         AngularGrid ... 3 (Lebedev-194)
Angular grid pruning method      GridPruning ... 4 (adaptive)
Weight generation scheme         WeightScheme... Becke
Basis function cutoff            BFCut       ... 1.0000e-11
Integration weight cutoff        WCut        ... 1.0000e-14
Angular grids for H and He will be reduced by one unit
Partially contracted basis set               ... on
Rotationally invariant grid construction     ... off

Total number of grid points                  ...    23305
Total number of batches                      ...      369
Average number of points per batch           ...       63
Average number of grid points per atom       ...     2913
UseSFitting                                  ... on

Time for X-Grid setup             =    2.323 sec

--------------
SCF ITERATIONS
--------------
ITER       Energy         Delta-E        Max-DP      RMS-DP      [F,P]     Damp
               ***  Starting incremental Fock matrix formation  ***
  0   -191.5971300869   0.000000000000 0.10586627  0.00758668  0.2568372 0.7000
  1   -191.6581270946  -0.060997007665 0.06157776  0.00456252  0.0928657 0.7000
                               ***Turning on DIIS***
  2   -191.6769614448  -0.018834350180 0.06066795  0.00579425  0.0302943 0.0000
  3   -191.7133469829  -0.036385538150 0.04156487  0.00350358  0.0472204 0.0000
  4   -191.7188345291  -0.005487546190 0.01140159  0.00112919  0.0253278 0.0000
  5   -191.7198975393  -0.001063010140 0.00315367  0.00030399  0.0040126 0.0000
                      *** Initiating the SOSCF procedure ***
                           *** Shutting down DIIS ***
                      *** Re-Reading the Fockian *** 
                      *** Removing any level shift *** 
ITER      Energy       Delta-E        Grad      Rot      Max-DP    RMS-DP
  6   -191.71992886  -0.0000313205  0.000482  0.000482  0.001083  0.000104
               *** Restarting incremental Fock matrix formation ***
  7   -191.71995591  -0.0000270539  0.000134  0.000388  0.000806  0.000060
  8   -191.71995621  -0.0000002957  0.000133  0.000365  0.000464  0.000040
  9   -191.71995622  -0.0000000127  0.000102  0.000182  0.000359  0.000027
 10   -191.71995635  -0.0000001257  0.000009  0.000022  0.000033  0.000003
 11   -191.71995635   0.0000000004  0.000014  0.000017  0.000030  0.000002
 12   -191.71995635  -0.0000000018  0.000005  0.000007  0.000019  0.000002
 13   -191.71995635  -0.0000000002  0.000005  0.000005  0.000013  0.000001
                 **** Energy Check signals convergence ****
              ***Rediagonalizing the Fockian in SOSCF/NRSCF***

               *****************************************************
               *                     SUCCESS                       *
               *           SCF CONVERGED AFTER  14 CYCLES          *
               *****************************************************

Old exchange energy                            =     -5.002893583 Eh
New exchange energy                            =     -5.002900422 Eh
Exchange energy change after final integration =     -0.000006839 Eh
Total energy after final integration           =   -191.719963189 Eh
Final COS-X integration done in                =     0.819 sec

----------------
TOTAL SCF ENERGY
----------------

Total Energy       :         -191.71996319 Eh           -5216.96542 eV

Components:
Nuclear Repulsion  :          104.63624682 Eh            2847.29703 eV
Electronic Energy  :         -296.35621001 Eh           -8064.26245 eV
One Electron Energy:         -466.34549527 Eh          -12689.90607 eV
Two Electron Energy:          169.98928526 Eh            4625.64362 eV
Max COSX asymmetry :            0.00000089 Eh               0.00002 eV

Virial components:
Potential Energy   :         -382.31366450 Eh          -10403.28370 eV
Kinetic Energy     :          190.59370131 Eh            5186.31828 eV
Virial Ratio       :            2.00590923


DFT components:
N(Alpha)           :       14.999999212061 electrons
N(Beta)            :       14.999999212061 electrons
N(Total)           :       29.999998424122 electrons
E(X)               :      -19.926040564256 Eh       
E(C)               :       -1.180479711474 Eh       
E(XC)              :      -21.106520275730 Eh       
DFET-embed. en.    :        0.000000000000 Eh       

---------------
SCF CONVERGENCE
---------------

  Last Energy change         ...   -4.2758e-10  Tolerance :   1.0000e-08
  Last MAX-Density change    ...    3.5527e-15  Tolerance :   1.0000e-07
  Last RMS-Density change    ...    1.1592e-16  Tolerance :   5.0000e-09
  Last Orbital Gradient      ...    1.7579e-07  Tolerance :   1.0000e-05
  Last Orbital Rotation      ...    3.2862e-07  Tolerance :   1.0000e-05

             **** THE GBW FILE WAS UPDATED (acrolien.1100.gbw) ****
             **** DENSITY acrolien.1100.scfp WAS UPDATED ****
             **** ENERGY FILE WAS UPDATED (acrolien.1100.en.tmp) ****
             **** THE GBW FILE WAS UPDATED (acrolien.1100.gbw) ****
             **** DENSITY acrolien.1100.scfp WAS UPDATED ****
----------------
ORBITAL ENERGIES
----------------

  NO   OCC          E(Eh)            E(eV) 
   0   2.0000     -19.150895      -521.1223 
   1   2.0000     -10.280763      -279.7538 
   2   2.0000     -10.224381      -278.2196 
   3   2.0000     -10.205162      -277.6966 
   4   2.0000      -1.078994       -29.3609 
   5   2.0000      -0.784896       -21.3581 
   6   2.0000      -0.659026       -17.9330 
   7   2.0000      -0.528684       -14.3862 
   8   2.0000      -0.508108       -13.8263 
   9   2.0000      -0.446067       -12.1381 
  10   2.0000      -0.415615       -11.3095 
  11   2.0000      -0.408492       -11.1156 
  12   2.0000      -0.384942       -10.4748 
  13   2.0000      -0.274727        -7.4757 
  14   2.0000      -0.258167        -7.0251 
  15   0.0000      -0.076612        -2.0847 
  16   0.0000       0.061039         1.6609 
  17   0.0000       0.087595         2.3836 
  18   0.0000       0.106070         2.8863 
  19   0.0000       0.155376         4.2280 
  20   0.0000       0.186296         5.0694 
  21   0.0000       0.250058         6.8044 
  22   0.0000       0.306649         8.3443 
  23   0.0000       0.345746         9.4082 
  24   0.0000       0.515733        14.0338 
  25   0.0000       0.553655        15.0657 
  26   0.0000       0.580970        15.8090 
  27   0.0000       0.595028        16.1915 
  28   0.0000       0.639378        17.3984 
  29   0.0000       0.651387        17.7251 
  30   0.0000       0.675335        18.3768 
  31   0.0000       0.719035        19.5659 
  32   0.0000       0.801740        21.8165 
  33   0.0000       0.814890        22.1743 
  34   0.0000       0.862589        23.4722 
  35   0.0000       0.883438        24.0396 
  36   0.0000       0.932249        25.3678 
  37   0.0000       0.985858        26.8266 
  38   0.0000       1.009140        27.4601 
  39   0.0000       1.121012        30.5043 
  40   0.0000       1.144564        31.1452 
  41   0.0000       1.208672        32.8896 
  42   0.0000       1.284070        34.9413 
  43   0.0000       1.828200        49.7479 

                    ********************************
                    * MULLIKEN POPULATION ANALYSIS *
                    ********************************

-----------------------
MULLIKEN ATOMIC CHARGES
-----------------------
   0 C :    0.202047
   1 O :   -0.385655
   2 C :   -0.138236
   3 C :   -0.249994
   4 H :    0.104955
   5 H :    0.132838
   6 H :    0.182091
   7 H :    0.151953
Sum of atomic charges:   -0.0000000

--------------------------------
MULLIKEN REDUCED ORBITAL CHARGES
--------------------------------
  0 C s       :     3.162327  s :     3.162327
      pz      :     0.798891  p :     2.635626
      px      :     1.029488
      py      :     0.807247
  1 O s       :     3.946083  s :     3.946083
      pz      :     1.308561  p :     4.439572
      px      :     1.790358
      py      :     1.340654
  2 C s       :     3.230018  s :     3.230018
      pz      :     1.017350  p :     2.908217
      px      :     0.891729
      py      :     0.999139
  3 C s       :     3.333716  s :     3.333716
      pz      :     0.879645  p :     2.916278
      px      :     0.991577
      py      :     1.045056
  4 H s       :     0.895045  s :     0.895045
  5 H s       :     0.867162  s :     0.867162
  6 H s       :     0.817909  s :     0.817909
  7 H s       :     0.848047  s :     0.848047


                     *******************************
                     * LOEWDIN POPULATION ANALYSIS *
                     *******************************

----------------------
LOEWDIN ATOMIC CHARGES
----------------------
   0 C :    0.103389
   1 O :   -0.225434
   2 C :   -0.193400
   3 C :   -0.152857
   4 H :    0.072630
   5 H :    0.116892
   6 H :    0.144988
   7 H :    0.133792

-------------------------------
LOEWDIN REDUCED ORBITAL CHARGES
-------------------------------
  0 C s       :     2.971867  s :     2.971867
      pz      :     0.799673  p :     2.924743
      px      :     1.095092
      py      :     1.029978
  1 O s       :     3.621999  s :     3.621999
      pz      :     1.309733  p :     4.603435
      px      :     1.828732
      py      :     1.464970
  2 C s       :     3.001077  s :     3.001077
      pz      :     1.010563  p :     3.192323
      px      :     1.088349
      py      :     1.093412
  3 C s       :     3.049539  s :     3.049539
      pz      :     0.885037  p :     3.103318
      px      :     1.093097
      py      :     1.125183
  4 H s       :     0.927370  s :     0.927370
  5 H s       :     0.883108  s :     0.883108
  6 H s       :     0.855012  s :     0.855012
  7 H s       :     0.866208  s :     0.866208


                      *****************************
                      * MAYER POPULATION ANALYSIS *
                      *****************************

  NA   - Mulliken gross atomic population
  ZA   - Total nuclear charge
  QA   - Mulliken gross atomic charge
  VA   - Mayer's total valence
  BVA  - Mayer's bonded valence
  FA   - Mayer's free valence

  ATOM       NA         ZA         QA         VA         BVA        FA
  0 C      5.7980     6.0000     0.2020     3.7240     3.7240    -0.0000
  1 O      8.3857     8.0000    -0.3857     2.0379     2.0379    -0.0000
  2 C      6.1382     6.0000    -0.1382     3.7349     3.7349    -0.0000
  3 C      6.2500     6.0000    -0.2500     3.8235     3.8235     0.0000
  4 H      0.8950     1.0000     0.1050     0.9335     0.9335    -0.0000
  5 H      0.8672     1.0000     0.1328     0.9478     0.9478     0.0000
  6 H      0.8179     1.0000     0.1821     0.9480     0.9480    -0.0000
  7 H      0.8480     1.0000     0.1520     0.9494     0.9494    -0.0000

  Mayer bond orders larger than 0.100000
B(  0-C ,  1-O ) :   1.8293 B(  0-C ,  2-C ) :   1.0097 B(  0-C ,  4-H ) :   0.8597 
B(  1-O ,  3-C ) :   0.1101 B(  2-C ,  3-C ) :   1.8345 B(  2-C ,  5-H ) :   0.9302 
B(  3-C ,  6-H ) :   0.9220 B(  3-C ,  7-H ) :   0.9394 

-------
TIMINGS
-------

Total SCF time: 0 days 0 hours 0 min 58 sec 

Total time                  ....      58.752 sec
Sum of individual times     ....      48.049 sec  ( 81.8%)

Fock matrix formation       ....      43.627 sec  ( 74.3%)
  Split-RI-J                ....       0.649 sec  (  1.5% of F)
  Chain of spheres X        ....       4.865 sec  ( 11.2% of F)
  XC integration            ....      16.080 sec  ( 36.9% of F)
    Basis function eval.    ....       1.109 sec  (  6.9% of XC)
    Density eval.           ....       0.583 sec  (  3.6% of XC)
    XC-Functional eval.     ....       0.560 sec  (  3.5% of XC)
    XC-Potential eval.      ....       0.259 sec  (  1.6% of XC)
Diagonalization             ....       0.004 sec  (  0.0%)
Density matrix formation    ....       0.000 sec  (  0.0%)
Population analysis         ....       0.141 sec  (  0.2%)
Initial guess               ....       1.188 sec  (  2.0%)
Orbital Transformation      ....       0.000 sec  (  0.0%)
Orbital Orthonormalization  ....       0.000 sec  (  0.0%)
DIIS solution               ....       0.002 sec  (  0.0%)
SOSCF solution              ....       0.034 sec  (  0.1%)
Grid generation             ....       3.054 sec  (  5.2%)

Maximum memory used throughout the entire SCF-calculation: 46.8 MB
------------------------------------------------------------------------------
                        ORCA TD-DFT/TDA CALCULATION
------------------------------------------------------------------------------

Input orbitals are from        ... acrolien.1100.gbw
CI-vector output               ... acrolien.1100.cis
Tamm-Dancoff approximation     ... operative
CIS-Integral strategy          ... AO-integrals
Integral handling              ... AO integral Direct
Max. core memory used          ... 512 MB
Reference state                ... RHF
Generation of triplets         ... off
Follow IRoot                   ... off
Number of operators            ... 1
Orbital ranges used for CIS calculation:
 Operator 0:  Orbitals   4... 14  to  15... 43
XAS localization array:
 Operator 0:  Orbitals  -1... -1

-------------------
XC-INTEGRATION GRID
-------------------

General Integration Accuracy     IntAcc      ... 3.467
Radial Grid Type                 RadialGrid  ... OptM3 with GC (2021)
Angular Grid (max. ang.)         AngularGrid ... 1 (Lebedev-50)
Angular grid pruning method      GridPruning ... 4 (adaptive)
Weight generation scheme         WeightScheme... Becke
Basis function cutoff            BFCut       ... 1.0000e-11
Integration weight cutoff        WCut        ... 1.0000e-14
Angular grids for H and He will be reduced by one unit
Partially contracted basis set               ... off
Rotationally invariant grid construction     ... off

Total number of grid points                  ...     5491
Total number of batches                      ...       91
Average number of points per batch           ...       60
Average number of grid points per atom       ...      686

---------------------
COSX-INTEGRATION GRID
---------------------

General Integration Accuracy     IntAcc      ... 3.067
Radial Grid Type                 RadialGrid  ... OptM3 with GC (2021)
Angular Grid (max. ang.)         AngularGrid ... 1 (Lebedev-50)
Angular grid pruning method      GridPruning ... 4 (adaptive)
Weight generation scheme         WeightScheme... Becke
Basis function cutoff            BFCut       ... 1.0000e-11
Integration weight cutoff        WCut        ... 1.0000e-14
Angular grids for H and He will be reduced by one unit
Partially contracted basis set               ... on
Rotationally invariant grid construction     ... off

Total number of grid points                  ...     2509
Total number of batches                      ...       45
Average number of points per batch           ...       55
Average number of grid points per atom       ...      314

---------------
TD-DFT XC SETUP
---------------

DFT calculation                         ... on
Name of the grid file                   ... acrolien.1100.grid_cis.tmp
Exchange functional (TD-DFT)            ... B88
   X-Alpha parameter    XAlpha (TD-DFT) ...  0.666667
   Becke's b parameter  XBeta (TD-DFT)  ...  0.004200
Correlation functional (TD-DFT)         ... LYP
 LDA part of GGA corr.  LDAOpt (TD-DFT) ... VWN-5
Hybrid DFT                              ... on
   Exchange mixing (TD-DFT)             ...  0.200
   GGA exch. scaling (TD-DFT)           ...  0.720
   GGA corr. scaling (TD-DFT)           ...  0.810

Building densities             ... done
Calculating rho(r) on the grid ... done
Building xc-kernel on the grid ... done
                    *** TD-DFT CALCULATION INITIALIZED ***

------------------------
DAVIDSON-DIAGONALIZATION
------------------------

Dimension of the eigenvalue problem            ...    319
Number of roots to be determined               ...      1
Maximum size of the expansion space            ...     10
Maximum number of iterations                   ...    100
Convergence tolerance for the residual         ...    2.500e-07
Convergence tolerance for the energies         ...    2.500e-07
Orthogonality tolerance                        ...    1.000e-14
Level Shift                                    ...    0.000e+00
Constructing the preconditioner                ... o.k.
Building the initial guess                     ... o.k.
Number of trial vectors determined             ...     10


                       ****Iteration    0****

   Memory handling for direct AO based CIS:
   Memory per vector needed      ...     1 MB
   Memory needed                 ...     0 MB
   Memory available              ...   512 MB
   Number of vectors per batch   ...   512
   Number of batches             ...     1
   Time for densities:            0.000
   Time for RI-J (Direct):        0.043
   Time for K (COSX):             0.118
   Time for XC-Integration:       0.040
   Time for Sigma-Completion:     0.000
   Size of expansion space: 3
   Lowest Energy          :     0.126115654738
   Maximum Energy change  :     0.126115654738 (vector 0)
   Maximum residual norm  :     0.000648515335

                       ****Iteration    1****
   Time for densities:            0.000
   Time for RI-J (Direct):        0.034
   Time for K (COSX):             0.108
   Time for XC-Integration:       0.024
   Time for Sigma-Completion:     0.000
   Size of expansion space: 4
   Lowest Energy          :     0.123857988480
   Maximum Energy change  :     0.002257666258 (vector 0)
   Maximum residual norm  :     0.000060337830

                       ****Iteration    2****
   Time for densities:            0.000
   Time for RI-J (Direct):        0.034
   Time for K (COSX):             0.108
   Time for XC-Integration:       0.024
   Time for Sigma-Completion:     0.000
   Size of expansion space: 5
   Lowest Energy          :     0.123785718636
   Maximum Energy change  :     0.000072269844 (vector 0)
   Maximum residual norm  :     0.000012225389

                       ****Iteration    3****
   Time for densities:            0.000
   Time for RI-J (Direct):        0.034
   Time for K (COSX):             0.108
   Time for XC-Integration:       0.024
   Time for Sigma-Completion:     0.000
   Size of expansion space: 6
   Lowest Energy          :     0.123770479901
   Maximum Energy change  :     0.000015238735 (vector 0)
   Maximum residual norm  :     0.000000723387

                       ****Iteration    4****
   Time for densities:            0.000
   Time for RI-J (Direct):        0.034
   Time for K (COSX):             0.108
   Time for XC-Integration:       0.024
   Time for Sigma-Completion:     0.000
   Size of expansion space: 7
   Lowest Energy          :     0.123769558289
   Maximum Energy change  :     0.000000921612 (vector 0)
   Maximum residual norm  :     0.000000045320

      *** CONVERGENCE OF RESIDUAL NORM REACHED ***

Storing the converged CI vectors               ... acrolien.1100.cis1

                 *** DAVIDSON DONE ***

Total time for solving the CIS problem:     0.888sec

------------------------------------
TD-DFT/TDA EXCITED STATES (SINGLETS)
------------------------------------

the weight of the individual excitations are printed if larger than 1.0e-02

STATE  1:  E=   0.123770 au      3.368 eV    27164.3 cm**-1 <S**2> =   0.000000
    14a ->  15a  :     0.986370 (c= -0.99316176)
    14a ->  16a  :     0.011702 (c= -0.10817680)


-----------------------------
TD-DFT/TDA-EXCITATION SPECTRA
-----------------------------

Center of mass = (  0.5748, -0.9079, -0.0003)
Calculating the Dipole integrals                  ... done
Transforming integrals                            ... done
Calculating the Linear Momentum integrals         ... done
Transforming integrals                            ... done
Calculating angular momentum integrals            ... done
Transforming integrals                            ... done

-----------------------------------------------------------------------------
         ABSORPTION SPECTRUM VIA TRANSITION ELECTRIC DIPOLE MOMENTS
-----------------------------------------------------------------------------
State   Energy    Wavelength  fosc         T2        TX        TY        TZ  
        (cm-1)      (nm)                 (au**2)    (au)      (au)      (au) 
-----------------------------------------------------------------------------
   1   27164.3    368.1   0.000172022   0.00208   0.02992  -0.01012  -0.03297

-----------------------------------------------------------------------------
         ABSORPTION SPECTRUM VIA TRANSITION VELOCITY DIPOLE MOMENTS
-----------------------------------------------------------------------------
State   Energy    Wavelength   fosc        P2         PX        PY        PZ  
        (cm-1)      (nm)                 (au**2)     (au)      (au)      (au) 
-----------------------------------------------------------------------------
   1   27164.3    368.1   0.000409490   0.00008  -0.00192  -0.00182   0.00831

-------------------------------------------------------------------
                             CD SPECTRUM
-------------------------------------------------------------------
State  Energy     Wavelength     R         MX        MY        MZ   
       (cm-1)       (nm)     (1e40*cgs)   (au)      (au)      (au)  
-------------------------------------------------------------------
   1   27164.3    368.1      2.43319   0.02586  -0.32567  -0.03307

-------------------------------------------------------------------
         CD SPECTRUM VIA TRANSITION VELOCITY DIPOLE MOMENTS        
-------------------------------------------------------------------
State  Energy     Wavelength     R         MX        MY        MZ   
       (cm-1)       (nm)     (1e40*cgs)   (au)      (au)      (au)  
-------------------------------------------------------------------
   1   27164.3    368.1      1.02234   0.02586  -0.32567  -0.03307

Total run time:        1.305 sec

           *** ORCA-CIS/TD-DFT FINISHED WITHOUT ERROR ***

Maximum memory used throughout the entire CIS-calculation: 42.9 MB

-----------------------
CIS/TD-DFT TOTAL ENERGY
-----------------------

    E(SCF)  =   -191.719963189 Eh
    DE(CIS) =      0.123769558 Eh (Root  1)
    ----------------------------- ---------
    E(tot)  =   -191.596193631 Eh


-------------------------   --------------------
FINAL SINGLE POINT ENERGY      -191.596193630626
-------------------------   --------------------


                            ***************************************
                            *     ORCA property calculations      *
                            ***************************************

                                    ---------------------
                                    Active property flags
                                    ---------------------
   (+) Dipole Moment


------------------------------------------------------------------------------
                       ORCA ELECTRIC PROPERTIES CALCULATION
------------------------------------------------------------------------------

Dipole Moment Calculation                       ... on
Quadrupole Moment Calculation                   ... off
Polarizability Calculation                      ... off
GBWName                                         ... acrolien.1100.gbw
Electron density                                ... acrolien.1100.scfp
The origin for moment calculation is the CENTER OF MASS  = ( 0.574807, -0.907855 -0.000306)

-------------
DIPOLE MOMENT
-------------
                                X             Y             Z
Electronic contribution:     -1.69731      -1.76451      -0.11486
Nuclear contribution   :      2.10092       2.72386       0.16747
                        -----------------------------------------
Total Dipole Moment    :      0.40361       0.95935       0.05260
                        -----------------------------------------
Magnitude (a.u.)       :      1.04212
Magnitude (Debye)      :      2.64886



--------------------
Rotational spectrum 
--------------------
 
Rotational constants in cm-1:     0.693777     0.224228     0.169636 
Rotational constants in MHz : 20798.918680  6722.173346  5085.553545 

 Dipole components along the rotational axes: 
x,y,z [a.u.] :     0.829530    -0.628554     0.053079 
x,y,z [Debye]:     2.108498    -1.597657     0.134917 

 

Timings for individual modules:

Sum of individual times         ...       61.984 sec (=   1.033 min)
GTO integral calculation        ...        1.334 sec (=   0.022 min)   2.2 %
SCF iterations                  ...       59.317 sec (=   0.989 min)  95.7 %
CIS module                      ...        1.333 sec (=   0.022 min)   2.2 %
                             ****ORCA TERMINATED NORMALLY****
TOTAL RUN TIME: 0 days 0 hours 1 minutes 2 seconds 781 msec
