
                                 *****************
                                 * O   R   C   A *
                                 *****************

                                            #,                                       
                                            ###                                      
                                            ####                                     
                                            #####                                    
                                            ######                                   
                                           ########,                                 
                                     ,,################,,,,,                         
                               ,,#################################,,                 
                          ,,##########################################,,             
                       ,#########################################, ''#####,          
                    ,#############################################,,   '####,        
                  ,##################################################,,,,####,       
                ,###########''''           ''''###############################       
              ,#####''   ,,,,##########,,,,          '''####'''          '####       
            ,##' ,,,,###########################,,,                        '##       
           ' ,,###''''                  '''############,,,                           
         ,,##''                                '''############,,,,        ,,,,,,###''
      ,#''                                            '''#######################'''  
     '                                                          ''''####''''         
             ,#######,   #######,   ,#######,      ##                                
            ,#'     '#,  ##    ##  ,#'     '#,    #''#        ######   ,####,        
            ##       ##  ##   ,#'  ##            #'  '#       #        #'  '#        
            ##       ##  #######   ##           ,######,      #####,   #    #        
            '#,     ,#'  ##    ##  '#,     ,#' ,#      #,         ##   #,  ,#        
             '#######'   ##     ##  '#######'  #'      '#     #####' # '####'        



                  #######################################################
                  #                        -***-                        #
                  #          Department of theory and spectroscopy      #
                  #    Directorship and core code : Frank Neese         #
                  #        Max Planck Institute fuer Kohlenforschung    #
                  #                Kaiser Wilhelm Platz 1               #
                  #                 D-45470 Muelheim/Ruhr               #
                  #                      Germany                        #
                  #                                                     #
                  #                  All rights reserved                #
                  #                        -***-                        #
                  #######################################################


                         Program Version 5.0.3 -  RELEASE  -


 With contributions from (in alphabetic order):
   Daniel Aravena         : Magnetic Suceptibility
   Michael Atanasov       : Ab Initio Ligand Field Theory (pilot matlab implementation)
   Alexander A. Auer      : GIAO ZORA, VPT2 properties, NMR spectrum
   Ute Becker             : Parallelization
   Giovanni Bistoni       : ED, misc. LED, open-shell LED, HFLD
   Martin Brehm           : Molecular dynamics
   Dmytro Bykov           : SCF Hessian
   Vijay G. Chilkuri      : MRCI spin determinant printing, contributions to CSF-ICE
   Dipayan Datta          : RHF DLPNO-CCSD density
   Achintya Kumar Dutta   : EOM-CC, STEOM-CC
   Dmitry Ganyushin       : Spin-Orbit,Spin-Spin,Magnetic field MRCI
   Miquel Garcia          : C-PCM and meta-GGA Hessian, CC/C-PCM, Gaussian charge scheme
   Yang Guo               : DLPNO-NEVPT2, F12-NEVPT2, CIM, IAO-localization
   Andreas Hansen         : Spin unrestricted coupled pair/coupled cluster methods
   Benjamin Helmich-Paris : MC-RPA, TRAH-SCF, COSX integrals
   Lee Huntington         : MR-EOM, pCC
   Robert Izsak           : Overlap fitted RIJCOSX, COSX-SCS-MP3, EOM
   Marcus Kettner         : VPT2
   Christian Kollmar      : KDIIS, OOCD, Brueckner-CCSD(T), CCSD density, CASPT2, CASPT2-K
   Simone Kossmann        : Meta GGA functionals, TD-DFT gradient, OOMP2, MP2 Hessian
   Martin Krupicka        : Initial AUTO-CI
   Lucas Lang             : DCDCAS
   Marvin Lechner         : AUTO-CI (C++ implementation), FIC-MRCC
   Dagmar Lenk            : GEPOL surface, SMD
   Dimitrios Liakos       : Extrapolation schemes; Compound Job, initial MDCI parallelization
   Dimitrios Manganas     : Further ROCIS development; embedding schemes
   Dimitrios Pantazis     : SARC Basis sets
   Anastasios Papadopoulos: AUTO-CI, single reference methods and gradients
   Taras Petrenko         : DFT Hessian,TD-DFT gradient, ASA, ECA, R-Raman, ABS, FL, XAS/XES, NRVS
   Peter Pinski           : DLPNO-MP2, DLPNO-MP2 Gradient
   Christoph Reimann      : Effective Core Potentials
   Marius Retegan         : Local ZFS, SOC
   Christoph Riplinger    : Optimizer, TS searches, QM/MM, DLPNO-CCSD(T), (RO)-DLPNO pert. Triples
   Tobias Risthaus        : Range-separated hybrids, TD-DFT gradient, RPA, STAB
   Michael Roemelt        : Original ROCIS implementation
   Masaaki Saitow         : Open-shell DLPNO-CCSD energy and density
   Barbara Sandhoefer     : DKH picture change effects
   Avijit Sen             : IP-ROCIS
   Kantharuban Sivalingam : CASSCF convergence, NEVPT2, FIC-MRCI
   Bernardo de Souza      : ESD, SOC TD-DFT
   Georgi Stoychev        : AutoAux, RI-MP2 NMR, DLPNO-MP2 response
   Willem Van den Heuvel  : Paramagnetic NMR
   Boris Wezisla          : Elementary symmetry handling
   Frank Wennmohs         : Technical directorship


 We gratefully acknowledge several colleagues who have allowed us to
 interface, adapt or use parts of their codes:
   Stefan Grimme, W. Hujo, H. Kruse, P. Pracht,  : VdW corrections, initial TS optimization,
                  C. Bannwarth, S. Ehlert          DFT functionals, gCP, sTDA/sTD-DF
   Ed Valeev, F. Pavosevic, A. Kumar             : LibInt (2-el integral package), F12 methods
   Garnet Chan, S. Sharma, J. Yang, R. Olivares  : DMRG
   Ulf Ekstrom                                   : XCFun DFT Library
   Mihaly Kallay                                 : mrcc  (arbitrary order and MRCC methods)
   Jiri Pittner, Ondrej Demel                    : Mk-CCSD
   Frank Weinhold                                : gennbo (NPA and NBO analysis)
   Christopher J. Cramer and Donald G. Truhlar   : smd solvation model
   Lars Goerigk                                  : TD-DFT with DH, B97 family of functionals
   V. Asgeirsson, H. Jonsson                     : NEB implementation
   FAccTs GmbH                                   : IRC, NEB, NEB-TS, DLPNO-Multilevel, CI-OPT
                                                   MM, QMMM, 2- and 3-layer-ONIOM, Crystal-QMMM,
                                                   LR-CPCM, SF, NACMEs, symmetry and pop. for TD-DFT,
                                                   nearIR, NL-DFT gradient (VV10), updates on ESD,
                                                   ML-optimized integration grids
   S Lehtola, MJT Oliveira, MAL Marques          : LibXC Library
   Liviu Ungur et al                             : ANISO software


 Your calculation uses the libint2 library for the computation of 2-el integrals
 For citations please refer to: http://libint.valeyev.net

 Your ORCA version has been built with support for libXC version: 5.1.0
 For citations please refer to: https://tddft.org/programs/libxc/

 This ORCA versions uses:
   CBLAS   interface :  Fast vector & matrix operations
   LAPACKE interface :  Fast linear algebra routines
   SCALAPACK package :  Parallel linear algebra routines
   Shared memory     :  Shared parallel matrices
   BLAS/LAPACK       :  OpenBLAS 0.3.15  USE64BITINT DYNAMIC_ARCH NO_AFFINITY Haswell SINGLE_THREADED
        Core in use  :  Haswell
   Copyright (c) 2011-2014, The OpenBLAS Project


================================================================================

----- Orbital basis set information -----
Your calculation utilizes the basis: 6-31G
   H-He, Li-Ne : W. J. Hehre, R. Ditchfield and J.A. Pople, J. Chem. Phys. 56, 2257 (1972).
                 Note: He and Ne are unpublished basis sets taken from the Gaussian program.
                 Note: Li and B from J. D. Dill and J. A. Pople, J. Chem. Phys. 62, 2921 (1975).
   Na - Ar     : M. M. Francl, W. J. Pietro, W. J. Hehre, J. S. Binkley, M. S. Gordon, 
                 D. J. DeFrees and J. A. Pople, J. Chem. Phys. 77, 3654 (1982).
   K - Zn      : V. A. Rassolov, J. A. Pople, M. A. Ratner, and T. L. Windus, J. Chem. Phys. 109, 1223 (1998).

----- AuxJ basis set information -----
Your calculation utilizes the auxiliary basis: def2/J
   F. Weigend, Phys. Chem. Chem. Phys. 8, 1057 (2006).

================================================================================
                                        WARNINGS
                       Please study these warnings very carefully!
================================================================================

INFO   : Checking CIS options ...

INFO   : the flag for use of the SHARK integral package has been found!

================================================================================
                                       INPUT FILE
================================================================================
NAME = acrolien.557.com
|  1> ! B3LYP 6-31G
|  2> !TightSCF
|  3> %scf
|  4>  ConvForced true
|  5>  convergence tight
|  6>  MaxIter 500
|  7> end
|  8>  
|  9> %tddft 
| 10>  nroots 1
| 11> end
| 12> 
| 13> # 	17981
| 14> * xyz 0 1
| 15> 		C   -1.268083  -0.361822   0.046047
| 16> 		O   -1.234708  -1.503727  -0.097942
| 17> 		C   -0.056657   0.536582   0.000450
| 18> 		C    1.202005  -0.010932   0.034147
| 19> 		H   -2.010638   0.229421   0.177011
| 20> 		H   -0.165633   1.657305  -0.047223
| 21> 		H    1.498832  -1.086238   0.071081
| 22> 		H    2.053908   0.575796  -0.187919
| 23> *
| 24> 
| 25>                          ****END OF INPUT****
================================================================================

                       ****************************
                       * Single Point Calculation *
                       ****************************

---------------------------------
CARTESIAN COORDINATES (ANGSTROEM)
---------------------------------
  C     -1.268083   -0.361822    0.046047
  O     -1.234708   -1.503727   -0.097942
  C     -0.056657    0.536582    0.000450
  C      1.202005   -0.010932    0.034147
  H     -2.010638    0.229421    0.177011
  H     -0.165633    1.657305   -0.047223
  H      1.498832   -1.086238    0.071081
  H      2.053908    0.575796   -0.187919

----------------------------
CARTESIAN COORDINATES (A.U.)
----------------------------
  NO LB      ZA    FRAG     MASS         X           Y           Z
   0 C     6.0000    0    12.011   -2.396330   -0.683744    0.087016
   1 O     8.0000    0    15.999   -2.333260   -2.841632   -0.185084
   2 C     6.0000    0    12.011   -0.107066    1.013993    0.000850
   3 C     6.0000    0    12.011    2.271460   -0.020658    0.064528
   4 H     1.0000    0     1.008   -3.799555    0.433543    0.334502
   5 H     1.0000    0     1.008   -0.313001    3.131853   -0.089239
   6 H     1.0000    0     1.008    2.832382   -2.052692    0.134324
   7 H     1.0000    0     1.008    3.881324    1.088097   -0.355115

--------------------------------
INTERNAL COORDINATES (ANGSTROEM)
--------------------------------
 C      0   0   0     0.000000000000     0.00000000     0.00000000
 O      1   0   0     1.151431175438     0.00000000     0.00000000
 C      1   2   0     1.508894226611   124.29328959     0.00000000
 C      3   1   2     1.373002949104   119.85615914   347.47552168
 H      1   2   3     0.958179410325   130.65466114   177.15115850
 H      3   1   2     1.127017535904   121.04605051   168.30512994
 H      4   3   1     1.116133227675   128.96103394     1.50379609
 H      4   3   1     1.057970593045   120.78812497   167.79273012

---------------------------
INTERNAL COORDINATES (A.U.)
---------------------------
 C      0   0   0     0.000000000000     0.00000000     0.00000000
 O      1   0   0     2.175889583637     0.00000000     0.00000000
 C      1   2   0     2.851396853350   124.29328959     0.00000000
 C      3   1   2     2.594599554873   119.85615914   347.47552168
 H      1   2   3     1.810696672676   130.65466114   177.15115850
 H      3   1   2     2.129754490984   121.04605051   168.30512994
 H      4   3   1     2.109186129276   128.96103394     1.50379609
 H      4   3   1     1.999274678598   120.78812497   167.79273012

---------------------
BASIS SET INFORMATION
---------------------
There are 3 groups of distinct atoms

 Group   1 Type C   : 10s4p contracted to 3s2p pattern {631/31}
 Group   2 Type O   : 10s4p contracted to 3s2p pattern {631/31}
 Group   3 Type H   : 4s contracted to 2s pattern {31}

Atom   0C    basis set group =>   1
Atom   1O    basis set group =>   2
Atom   2C    basis set group =>   1
Atom   3C    basis set group =>   1
Atom   4H    basis set group =>   3
Atom   5H    basis set group =>   3
Atom   6H    basis set group =>   3
Atom   7H    basis set group =>   3
---------------------------------
AUXILIARY/J BASIS SET INFORMATION
---------------------------------
There are 3 groups of distinct atoms

 Group   1 Type C   : 12s5p4d2f1g contracted to 6s4p3d1f1g pattern {711111/2111/211/2/1}
 Group   2 Type O   : 12s5p4d2f1g contracted to 6s4p3d1f1g pattern {711111/2111/211/2/1}
 Group   3 Type H   : 5s2p1d contracted to 3s1p1d pattern {311/2/1}

Atom   0C    basis set group =>   1
Atom   1O    basis set group =>   2
Atom   2C    basis set group =>   1
Atom   3C    basis set group =>   1
Atom   4H    basis set group =>   3
Atom   5H    basis set group =>   3
Atom   6H    basis set group =>   3
Atom   7H    basis set group =>   3
------------------------------------------------------------------------------
                           ORCA GTO INTEGRAL CALCULATION
                           -- RI-GTO INTEGRALS CHOSEN --
------------------------------------------------------------------------------
------------------------------------------------------------------------------
                   ___                                                        
                  /   \      - P O W E R E D   B Y -                         
                 /     \                                                     
                 |  |  |   _    _      __       _____    __    __             
                 |  |  |  | |  | |    /  \     |  _  \  |  |  /  |          
                  \  \/   | |  | |   /    \    | | | |  |  | /  /          
                 / \  \   | |__| |  /  /\  \   | |_| |  |  |/  /          
                |  |  |   |  __  | /  /__\  \  |    /   |      \           
                |  |  |   | |  | | |   __   |  |    \   |  |\   \          
                \     /   | |  | | |  |  |  |  | |\  \  |  | \   \       
                 \___/    |_|  |_| |__|  |__|  |_| \__\ |__|  \__/        
                                                                              
                      - O R C A' S   B I G   F R I E N D -                    
                                      &                                       
                       - I N T E G R A L  F E E D E R -                       
                                                                              
 v1 FN, 2020, v2 2021                                                         
------------------------------------------------------------------------------


Reading SHARK input file acrolien.557.SHARKINP.tmp ... ok
----------------------
SHARK INTEGRAL PACKAGE
----------------------

Number of atoms                             ...      8
Number of basis functions                   ...     44
Number of shells                            ...     28
Maximum angular momentum                    ...      1
Integral batch strategy                     ... SHARK/LIBINT Hybrid
RI-J (if used) integral strategy            ... SPLIT-RIJ (Revised 2003 algorithm where possible)
Printlevel                                  ...      1
Contraction scheme used                     ... SEGMENTED contraction
Coulomb Range Separation                    ... NOT USED
Exchange Range Separation                   ... NOT USED
Finite Nucleus Model                        ... NOT USED
Auxiliary Coulomb fitting basis             ... AVAILABLE
   # of basis functions in Aux-J            ...    240
   # of shells in Aux-J                     ...     80
   Maximum angular momentum in Aux-J        ...      4
Auxiliary J/K fitting basis                 ... NOT available
Auxiliary Correlation fitting basis         ... NOT available
Auxiliary 'external' fitting basis          ... NOT available
Integral threshold                          ...     2.500000e-11
Primitive cut-off                           ...     2.500000e-12
Primitive pair pre-selection threshold      ...     2.500000e-12

Calculating pre-screening integrals         ... done (  0.0 sec) Dimension = 28
Organizing shell pair data                  ... done (  0.1 sec)
Shell pair information
Total number of shell pairs                 ...       406
Shell pairs after pre-screening             ...       402
Total number of primitive shell pairs       ...      2724
Primitive shell pairs kept                  ...      2020
          la=0 lb=0:    206 shell pairs
          la=1 lb=0:    160 shell pairs
          la=1 lb=1:     36 shell pairs

Calculating one electron integrals          ... done (  0.0 sec)
Calculating RI/J V-Matrix + Cholesky decomp.... done (  0.1 sec)
Calculating Nuclear repulsion               ... done (  0.0 sec) ENN=    105.459051369618 Eh

SHARK setup successfully completed in   1.2 seconds

Maximum memory used throughout the entire GTOINT-calculation: 8.3 MB
-------------------------------------------------------------------------------
                                 ORCA SCF
-------------------------------------------------------------------------------

------------
SCF SETTINGS
------------
Hamiltonian:
 Density Functional     Method          .... DFT(GTOs)
 Exchange Functional    Exchange        .... B88
   X-Alpha parameter    XAlpha          ....  0.666667
   Becke's b parameter  XBeta           ....  0.004200
 Correlation Functional Correlation     .... LYP
 LDA part of GGA corr.  LDAOpt          .... VWN-5
 Gradients option       PostSCFGGA      .... off
 Hybrid DFT is turned on
   Fraction HF Exchange ScalHFX         ....  0.200000
   Scaling of DF-GGA-X  ScalDFX         ....  0.720000
   Scaling of DF-GGA-C  ScalDFC         ....  0.810000
   Scaling of DF-LDA-C  ScalLDAC        ....  1.000000
   Perturbative correction              ....  0.000000
   Density functional embedding theory  .... OFF
   NL short-range parameter             ....  4.800000
 RI-approximation to the Coulomb term is turned on
   Number of AuxJ basis functions       .... 240
   RIJ-COSX (HFX calculated with COS-X)).... on


General Settings:
 Integral files         IntName         .... acrolien.557
 Hartree-Fock type      HFTyp           .... RHF
 Total Charge           Charge          ....    0
 Multiplicity           Mult            ....    1
 Number of Electrons    NEL             ....   30
 Basis Dimension        Dim             ....   44
 Nuclear Repulsion      ENuc            ....    105.4590513696 Eh

Convergence Acceleration:
 DIIS                   CNVDIIS         .... on
   Start iteration      DIISMaxIt       ....    12
   Startup error        DIISStart       ....  0.200000
   # of expansion vecs  DIISMaxEq       ....     5
   Bias factor          DIISBfac        ....   1.050
   Max. coefficient     DIISMaxC        ....  10.000
 Trust-Rad. Augm. Hess. CNVTRAH         .... auto
   Auto Start mean grad. ratio tolernc. ....  1.125000
   Auto Start start iteration           ....    20
   Auto Start num. interpolation iter.  ....    10
   Max. Number of Micro iterations      ....    16
   Max. Number of Macro iterations      .... Maxiter - #DIIS iter
   Number of Davidson start vectors     ....     2
   Converg. threshold I  (grad. norm)   ....   1.000e-05
   Converg. threshold II (energy diff.) ....   1.000e-08
   Grad. Scal. Fac. for Micro threshold ....   0.100
   Minimum threshold for Micro iter.    ....   0.010
   NR start threshold (gradient norm)   ....   0.001
   Initial trust radius                 ....   0.400
   Minimum AH scaling param. (alpha)    ....   1.000
   Maximum AH scaling param. (alpha)    .... 1000.000
   Orbital update algorithm             .... Taylor
   White noise on init. David. guess    .... on
   Maximum white noise                  ....   0.010
   Quad. conv. algorithm                .... NR
 SOSCF                  CNVSOSCF        .... on
   Start iteration      SOSCFMaxIt      ....   150
   Startup grad/error   SOSCFStart      ....  0.003300
 Level Shifting         CNVShift        .... on
   Level shift para.    LevelShift      ....    0.2500
   Turn off err/grad.   ShiftErr        ....    0.0010
 Zerner damping         CNVZerner       .... off
 Static damping         CNVDamp         .... on
   Fraction old density DampFac         ....    0.7000
   Max. Damping (<1)    DampMax         ....    0.9800
   Min. Damping (>=0)   DampMin         ....    0.0000
   Turn off err/grad.   DampErr         ....    0.1000
 Fernandez-Rico         CNVRico         .... off

SCF Procedure:
 Maximum # iterations   MaxIter         ....   500
 SCF integral mode      SCFMode         .... Direct
   Integral package                     .... SHARK and LIBINT hybrid scheme
 Reset frequency        DirectResetFreq ....    20
 Integral Threshold     Thresh          ....  2.500e-11 Eh
 Primitive CutOff       TCut            ....  2.500e-12 Eh

Convergence Tolerance:
 Convergence Check Mode ConvCheckMode   .... Total+1el-Energy
 Convergence forced     ConvForced      .... 1
 Energy Change          TolE            ....  1.000e-08 Eh
 1-El. energy change                    ....  1.000e-05 Eh
 Orbital Gradient       TolG            ....  1.000e-05
 Orbital Rotation angle TolX            ....  1.000e-05
 DIIS Error             TolErr          ....  5.000e-07


Diagonalization of the overlap matrix:
Smallest eigenvalue                        ... 6.155e-03
Time for diagonalization                   ...    0.056 sec
Threshold for overlap eigenvalues          ... 1.000e-08
Number of eigenvalues below threshold      ... 0
Time for construction of square roots      ...    0.064 sec
Total time needed                          ...    0.120 sec

Time for model grid setup =    0.204 sec

------------------------------
INITIAL GUESS: MODEL POTENTIAL
------------------------------
Loading Hartree-Fock densities                     ... done
Calculating cut-offs                               ... done
Initializing the effective Hamiltonian             ... done
Setting up the integral package (SHARK)            ... done
Starting the Coulomb interaction                   ... done (   1.0 sec)
Reading the grid                                   ... done
Mapping shells                                     ... done
Starting the XC term evaluation                    ... done (   0.0 sec)
  promolecular density results
     # of electrons  =     29.998759551
     EX              =    -24.774384225
     EC              =     -0.997874194
     EX+EC           =    -25.772258419
Transforming the Hamiltonian                       ... done (   0.5 sec)
Diagonalizing the Hamiltonian                      ... done (   0.0 sec)
Back transforming the eigenvectors                 ... done (   0.0 sec)
Now organizing SCF variables                       ... done
                      ------------------
                      INITIAL GUESS DONE (   2.1 sec)
                      ------------------
-------------------
DFT GRID GENERATION
-------------------

General Integration Accuracy     IntAcc      ... 4.388
Radial Grid Type                 RadialGrid  ... OptM3 with GC (2021)
Angular Grid (max. ang.)         AngularGrid ... 4 (Lebedev-302)
Angular grid pruning method      GridPruning ... 4 (adaptive)
Weight generation scheme         WeightScheme... Becke
Basis function cutoff            BFCut       ... 1.0000e-11
Integration weight cutoff        WCut        ... 1.0000e-14
Angular grids for H and He will be reduced by one unit
Partially contracted basis set               ... off
Rotationally invariant grid construction     ... off

Total number of grid points                  ...    37366
Total number of batches                      ...      588
Average number of points per batch           ...       63
Average number of grid points per atom       ...     4671
Time for grid setup =    0.535 sec

--------------------
COSX GRID GENERATION
--------------------

GRIDX 1
-------
General Integration Accuracy     IntAcc      ... 3.816
Radial Grid Type                 RadialGrid  ... OptM3 with GC (2021)
Angular Grid (max. ang.)         AngularGrid ... 1 (Lebedev-50)
Angular grid pruning method      GridPruning ... 4 (adaptive)
Weight generation scheme         WeightScheme... Becke
Basis function cutoff            BFCut       ... 1.0000e-11
Integration weight cutoff        WCut        ... 1.0000e-14
Angular grids for H and He will be reduced by one unit
Partially contracted basis set               ... on
Rotationally invariant grid construction     ... off

Total number of grid points                  ...     4802
Total number of batches                      ...       79
Average number of points per batch           ...       60
Average number of grid points per atom       ...      600
UseSFitting                                  ... on

GRIDX 2
-------
General Integration Accuracy     IntAcc      ... 4.020
Radial Grid Type                 RadialGrid  ... OptM3 with GC (2021)
Angular Grid (max. ang.)         AngularGrid ... 2 (Lebedev-110)
Angular grid pruning method      GridPruning ... 4 (adaptive)
Weight generation scheme         WeightScheme... Becke
Basis function cutoff            BFCut       ... 1.0000e-11
Integration weight cutoff        WCut        ... 1.0000e-14
Angular grids for H and He will be reduced by one unit
Partially contracted basis set               ... on
Rotationally invariant grid construction     ... off

Total number of grid points                  ...    10562
Total number of batches                      ...      170
Average number of points per batch           ...       62
Average number of grid points per atom       ...     1320
UseSFitting                                  ... on

GRIDX 3
-------
General Integration Accuracy     IntAcc      ... 4.338
Radial Grid Type                 RadialGrid  ... OptM3 with GC (2021)
Angular Grid (max. ang.)         AngularGrid ... 3 (Lebedev-194)
Angular grid pruning method      GridPruning ... 4 (adaptive)
Weight generation scheme         WeightScheme... Becke
Basis function cutoff            BFCut       ... 1.0000e-11
Integration weight cutoff        WCut        ... 1.0000e-14
Angular grids for H and He will be reduced by one unit
Partially contracted basis set               ... on
Rotationally invariant grid construction     ... off

Total number of grid points                  ...    23279
Total number of batches                      ...      368
Average number of points per batch           ...       63
Average number of grid points per atom       ...     2910
UseSFitting                                  ... on

Time for X-Grid setup             =    0.617 sec

--------------
SCF ITERATIONS
--------------
ITER       Energy         Delta-E        Max-DP      RMS-DP      [F,P]     Damp
               ***  Starting incremental Fock matrix formation  ***
  0   -191.5857424001   0.000000000000 0.09123928  0.00720109  0.2396528 0.7000
  1   -191.6402945905  -0.054552190347 0.05379975  0.00466647  0.0960949 0.7000
                               ***Turning on DIIS***
  2   -191.6599165913  -0.019622000882 0.07398598  0.00654729  0.0316899 0.0000
  3   -191.6942958051  -0.034379213786 0.04077522  0.00340151  0.0479319 0.0000
  4   -191.6999630181  -0.005667212998 0.00916733  0.00097451  0.0188959 0.0000
                      *** Initiating the SOSCF procedure ***
                           *** Shutting down DIIS ***
                      *** Re-Reading the Fockian *** 
                      *** Removing any level shift *** 
ITER      Energy       Delta-E        Grad      Rot      Max-DP    RMS-DP
  5   -191.70066671  -0.0007036960  0.000507  0.000507  0.003088  0.000236
               *** Restarting incremental Fock matrix formation ***
  6   -191.70068619  -0.0000194780  0.000251  0.000738  0.001334  0.000125
  7   -191.70068653  -0.0000003339  0.000277  0.000293  0.000972  0.000056
  8   -191.70068733  -0.0000008030  0.000103  0.000193  0.000311  0.000031
  9   -191.70068727   0.0000000572  0.000102  0.000087  0.000180  0.000013
 10   -191.70068744  -0.0000001679  0.000005  0.000010  0.000035  0.000002
 11   -191.70068744   0.0000000001  0.000005  0.000012  0.000009  0.000001
 12   -191.70068744  -0.0000000000  0.000003  0.000006  0.000013  0.000001
                  ***Gradient check signals convergence***
              ***Rediagonalizing the Fockian in SOSCF/NRSCF***

               *****************************************************
               *                     SUCCESS                       *
               *           SCF CONVERGED AFTER  13 CYCLES          *
               *****************************************************

Old exchange energy                            =     -5.034781952 Eh
New exchange energy                            =     -5.034774522 Eh
Exchange energy change after final integration =      0.000007430 Eh
Total energy after final integration           =   -191.700680010 Eh
Final COS-X integration done in                =     0.809 sec

----------------
TOTAL SCF ENERGY
----------------

Total Energy       :         -191.70068001 Eh           -5216.44070 eV

Components:
Nuclear Repulsion  :          105.45905137 Eh            2869.68668 eV
Electronic Energy  :         -297.15973138 Eh           -8086.12738 eV
One Electron Energy:         -467.77587483 Eh          -12728.82868 eV
Two Electron Energy:          170.61614345 Eh            4642.70129 eV
Max COSX asymmetry :            0.00000102 Eh               0.00003 eV

Virial components:
Potential Energy   :         -382.87484783 Eh          -10418.55428 eV
Kinetic Energy     :          191.17416782 Eh            5202.11358 eV
Virial Ratio       :            2.00275410


DFT components:
N(Alpha)           :       15.000000555722 electrons
N(Beta)            :       15.000000555722 electrons
N(Total)           :       30.000001111443 electrons
E(X)               :      -20.034722443402 Eh       
E(C)               :       -1.185793186108 Eh       
E(XC)              :      -21.220515629510 Eh       
DFET-embed. en.    :        0.000000000000 Eh       

---------------
SCF CONVERGENCE
---------------

  Last Energy change         ...   -3.8068e-10  Tolerance :   1.0000e-08
  Last MAX-Density change    ...    1.7764e-15  Tolerance :   1.0000e-07
  Last RMS-Density change    ...    7.7593e-17  Tolerance :   5.0000e-09
  Last Orbital Gradient      ...    1.1217e-06  Tolerance :   1.0000e-05
  Last Orbital Rotation      ...    1.0497e-06  Tolerance :   1.0000e-05

             **** THE GBW FILE WAS UPDATED (acrolien.557.gbw) ****
             **** DENSITY acrolien.557.scfp WAS UPDATED ****
             **** ENERGY FILE WAS UPDATED (acrolien.557.en.tmp) ****
             **** THE GBW FILE WAS UPDATED (acrolien.557.gbw) ****
             **** DENSITY acrolien.557.scfp WAS UPDATED ****
----------------
ORBITAL ENERGIES
----------------

  NO   OCC          E(Eh)            E(eV) 
   0   2.0000     -19.150137      -521.1017 
   1   2.0000     -10.263423      -279.2819 
   2   2.0000     -10.203942      -277.6634 
   3   2.0000     -10.200918      -277.5811 
   4   2.0000      -1.106330       -30.1048 
   5   2.0000      -0.781789       -21.2736 
   6   2.0000      -0.673678       -18.3317 
   7   2.0000      -0.564231       -15.3535 
   8   2.0000      -0.505576       -13.7574 
   9   2.0000      -0.447421       -12.1749 
  10   2.0000      -0.431676       -11.7465 
  11   2.0000      -0.416632       -11.3371 
  12   2.0000      -0.381744       -10.3878 
  13   2.0000      -0.276986        -7.5372 
  14   2.0000      -0.253102        -6.8873 
  15   0.0000      -0.060197        -1.6381 
  16   0.0000       0.064077         1.7436 
  17   0.0000       0.107927         2.9368 
  18   0.0000       0.130641         3.5549 
  19   0.0000       0.176888         4.8134 
  20   0.0000       0.190815         5.1924 
  21   0.0000       0.264440         7.1958 
  22   0.0000       0.322605         8.7785 
  23   0.0000       0.334261         9.0957 
  24   0.0000       0.515591        14.0299 
  25   0.0000       0.554388        15.0857 
  26   0.0000       0.576135        15.6774 
  27   0.0000       0.586102        15.9487 
  28   0.0000       0.644750        17.5445 
  29   0.0000       0.657108        17.8808 
  30   0.0000       0.694314        18.8932 
  31   0.0000       0.781703        21.2712 
  32   0.0000       0.825690        22.4682 
  33   0.0000       0.864557        23.5258 
  34   0.0000       0.918729        24.9999 
  35   0.0000       0.932500        25.3746 
  36   0.0000       0.974520        26.5180 
  37   0.0000       0.983752        26.7693 
  38   0.0000       1.000700        27.2304 
  39   0.0000       1.117738        30.4152 
  40   0.0000       1.141964        31.0744 
  41   0.0000       1.159565        31.5534 
  42   0.0000       1.269812        34.5533 
  43   0.0000       1.843123        50.1539 

                    ********************************
                    * MULLIKEN POPULATION ANALYSIS *
                    ********************************

-----------------------
MULLIKEN ATOMIC CHARGES
-----------------------
   0 C :    0.207698
   1 O :   -0.325573
   2 C :   -0.169206
   3 C :   -0.249236
   4 H :    0.094188
   5 H :    0.138611
   6 H :    0.167117
   7 H :    0.136402
Sum of atomic charges:    0.0000000

--------------------------------
MULLIKEN REDUCED ORBITAL CHARGES
--------------------------------
  0 C s       :     3.105529  s :     3.105529
      pz      :     0.809053  p :     2.686773
      px      :     1.054729
      py      :     0.822991
  1 O s       :     3.909986  s :     3.909986
      pz      :     1.281223  p :     4.415588
      px      :     1.791302
      py      :     1.343063
  2 C s       :     3.247189  s :     3.247189
      pz      :     1.007894  p :     2.922017
      px      :     0.933872
      py      :     0.980251
  3 C s       :     3.284879  s :     3.284879
      pz      :     0.911595  p :     2.964357
      px      :     1.010690
      py      :     1.042072
  4 H s       :     0.905812  s :     0.905812
  5 H s       :     0.861389  s :     0.861389
  6 H s       :     0.832883  s :     0.832883
  7 H s       :     0.863598  s :     0.863598


                     *******************************
                     * LOEWDIN POPULATION ANALYSIS *
                     *******************************

----------------------
LOEWDIN ATOMIC CHARGES
----------------------
   0 C :    0.107029
   1 O :   -0.183921
   2 C :   -0.189936
   3 C :   -0.170221
   4 H :    0.067147
   5 H :    0.122115
   6 H :    0.132138
   7 H :    0.115649

-------------------------------
LOEWDIN REDUCED ORBITAL CHARGES
-------------------------------
  0 C s       :     2.927520  s :     2.927520
      pz      :     0.813148  p :     2.965450
      px      :     1.101763
      py      :     1.050539
  1 O s       :     3.584949  s :     3.584949
      pz      :     1.284397  p :     4.598972
      px      :     1.836104
      py      :     1.478471
  2 C s       :     3.007891  s :     3.007891
      pz      :     1.003922  p :     3.182044
      px      :     1.093174
      py      :     1.084948
  3 C s       :     3.016014  s :     3.016014
      pz      :     0.916776  p :     3.154207
      px      :     1.109899
      py      :     1.127533
  4 H s       :     0.932853  s :     0.932853
  5 H s       :     0.877885  s :     0.877885
  6 H s       :     0.867862  s :     0.867862
  7 H s       :     0.884351  s :     0.884351


                      *****************************
                      * MAYER POPULATION ANALYSIS *
                      *****************************

  NA   - Mulliken gross atomic population
  ZA   - Total nuclear charge
  QA   - Mulliken gross atomic charge
  VA   - Mayer's total valence
  BVA  - Mayer's bonded valence
  FA   - Mayer's free valence

  ATOM       NA         ZA         QA         VA         BVA        FA
  0 C      5.7923     6.0000     0.2077     3.8200     3.8200     0.0000
  1 O      8.3256     8.0000    -0.3256     2.0867     2.0867     0.0000
  2 C      6.1692     6.0000    -0.1692     3.7519     3.7519    -0.0000
  3 C      6.2492     6.0000    -0.2492     3.8583     3.8583    -0.0000
  4 H      0.9058     1.0000     0.0942     0.9015     0.9015     0.0000
  5 H      0.8614     1.0000     0.1386     0.9450     0.9450     0.0000
  6 H      0.8329     1.0000     0.1671     0.9407     0.9407     0.0000
  7 H      0.8636     1.0000     0.1364     0.9362     0.9362     0.0000

  Mayer bond orders larger than 0.100000
B(  0-C ,  1-O ) :   1.9389 B(  0-C ,  2-C ) :   0.9617 B(  0-C ,  4-H ) :   0.8874 
B(  2-C ,  3-C ) :   1.8834 B(  2-C ,  5-H ) :   0.9303 B(  3-C ,  6-H ) :   0.9351 
B(  3-C ,  7-H ) :   0.9399 

-------
TIMINGS
-------

Total SCF time: 0 days 0 hours 0 min 56 sec 

Total time                  ....      56.657 sec
Sum of individual times     ....      45.943 sec  ( 81.1%)

Fock matrix formation       ....      41.989 sec  ( 74.1%)
  Split-RI-J                ....       0.619 sec  (  1.5% of F)
  Chain of spheres X        ....       4.738 sec  ( 11.3% of F)
  XC integration            ....      13.897 sec  ( 33.1% of F)
    Basis function eval.    ....       1.032 sec  (  7.4% of XC)
    Density eval.           ....       0.387 sec  (  2.8% of XC)
    XC-Functional eval.     ....       0.572 sec  (  4.1% of XC)
    XC-Potential eval.      ....       0.243 sec  (  1.7% of XC)
Diagonalization             ....       0.003 sec  (  0.0%)
Density matrix formation    ....       0.000 sec  (  0.0%)
Population analysis         ....       0.002 sec  (  0.0%)
Initial guess               ....       1.876 sec  (  3.3%)
Orbital Transformation      ....       0.000 sec  (  0.0%)
Orbital Orthonormalization  ....       0.000 sec  (  0.0%)
DIIS solution               ....       0.001 sec  (  0.0%)
SOSCF solution              ....       0.714 sec  (  1.3%)
Grid generation             ....       1.356 sec  (  2.4%)

Maximum memory used throughout the entire SCF-calculation: 46.8 MB
------------------------------------------------------------------------------
                        ORCA TD-DFT/TDA CALCULATION
------------------------------------------------------------------------------

Input orbitals are from        ... acrolien.557.gbw
CI-vector output               ... acrolien.557.cis
Tamm-Dancoff approximation     ... operative
CIS-Integral strategy          ... AO-integrals
Integral handling              ... AO integral Direct
Max. core memory used          ... 512 MB
Reference state                ... RHF
Generation of triplets         ... off
Follow IRoot                   ... off
Number of operators            ... 1
Orbital ranges used for CIS calculation:
 Operator 0:  Orbitals   4... 14  to  15... 43
XAS localization array:
 Operator 0:  Orbitals  -1... -1

-------------------
XC-INTEGRATION GRID
-------------------

General Integration Accuracy     IntAcc      ... 3.467
Radial Grid Type                 RadialGrid  ... OptM3 with GC (2021)
Angular Grid (max. ang.)         AngularGrid ... 1 (Lebedev-50)
Angular grid pruning method      GridPruning ... 4 (adaptive)
Weight generation scheme         WeightScheme... Becke
Basis function cutoff            BFCut       ... 1.0000e-11
Integration weight cutoff        WCut        ... 1.0000e-14
Angular grids for H and He will be reduced by one unit
Partially contracted basis set               ... off
Rotationally invariant grid construction     ... off

Total number of grid points                  ...     5490
Total number of batches                      ...       90
Average number of points per batch           ...       61
Average number of grid points per atom       ...      686

---------------------
COSX-INTEGRATION GRID
---------------------

General Integration Accuracy     IntAcc      ... 3.067
Radial Grid Type                 RadialGrid  ... OptM3 with GC (2021)
Angular Grid (max. ang.)         AngularGrid ... 1 (Lebedev-50)
Angular grid pruning method      GridPruning ... 4 (adaptive)
Weight generation scheme         WeightScheme... Becke
Basis function cutoff            BFCut       ... 1.0000e-11
Integration weight cutoff        WCut        ... 1.0000e-14
Angular grids for H and He will be reduced by one unit
Partially contracted basis set               ... on
Rotationally invariant grid construction     ... off

Total number of grid points                  ...     2506
Total number of batches                      ...       44
Average number of points per batch           ...       56
Average number of grid points per atom       ...      313

---------------
TD-DFT XC SETUP
---------------

DFT calculation                         ... on
Name of the grid file                   ... acrolien.557.grid_cis.tmp
Exchange functional (TD-DFT)            ... B88
   X-Alpha parameter    XAlpha (TD-DFT) ...  0.666667
   Becke's b parameter  XBeta (TD-DFT)  ...  0.004200
Correlation functional (TD-DFT)         ... LYP
 LDA part of GGA corr.  LDAOpt (TD-DFT) ... VWN-5
Hybrid DFT                              ... on
   Exchange mixing (TD-DFT)             ...  0.200
   GGA exch. scaling (TD-DFT)           ...  0.720
   GGA corr. scaling (TD-DFT)           ...  0.810

Building densities             ... done
Calculating rho(r) on the grid ... done
Building xc-kernel on the grid ... done
                    *** TD-DFT CALCULATION INITIALIZED ***

------------------------
DAVIDSON-DIAGONALIZATION
------------------------

Dimension of the eigenvalue problem            ...    319
Number of roots to be determined               ...      1
Maximum size of the expansion space            ...     10
Maximum number of iterations                   ...    100
Convergence tolerance for the residual         ...    2.500e-07
Convergence tolerance for the energies         ...    2.500e-07
Orthogonality tolerance                        ...    1.000e-14
Level Shift                                    ...    0.000e+00
Constructing the preconditioner                ... o.k.
Building the initial guess                     ... o.k.
Number of trial vectors determined             ...     10


                       ****Iteration    0****

   Memory handling for direct AO based CIS:
   Memory per vector needed      ...     1 MB
   Memory needed                 ...     0 MB
   Memory available              ...   512 MB
   Number of vectors per batch   ...   512
   Number of batches             ...     1
   Time for densities:            0.000
   Time for RI-J (Direct):        0.044
   Time for K (COSX):             0.118
   Time for XC-Integration:       0.039
   Time for Sigma-Completion:     0.000
   Size of expansion space: 3
   Lowest Energy          :     0.135712140287
   Maximum Energy change  :     0.135712140287 (vector 0)
   Maximum residual norm  :     0.000552368858

                       ****Iteration    1****
   Time for densities:            0.000
   Time for RI-J (Direct):        0.034
   Time for K (COSX):             0.300
   Time for XC-Integration:       0.023
   Time for Sigma-Completion:     0.000
   Size of expansion space: 4
   Lowest Energy          :     0.134775761160
   Maximum Energy change  :     0.000936379127 (vector 0)
   Maximum residual norm  :     0.000032792676

                       ****Iteration    2****
   Time for densities:            0.000
   Time for RI-J (Direct):        0.036
   Time for K (COSX):             0.155
   Time for XC-Integration:       0.022
   Time for Sigma-Completion:     0.000
   Size of expansion space: 5
   Lowest Energy          :     0.134744481660
   Maximum Energy change  :     0.000031279500 (vector 0)
   Maximum residual norm  :     0.000003772865

                       ****Iteration    3****
   Time for densities:            0.000
   Time for RI-J (Direct):        0.034
   Time for K (COSX):             0.127
   Time for XC-Integration:       0.022
   Time for Sigma-Completion:     0.000
   Size of expansion space: 6
   Lowest Energy          :     0.134739211040
   Maximum Energy change  :     0.000005270619 (vector 0)
   Maximum residual norm  :     0.000000220223

      *** CONVERGENCE OF RESIDUAL NORM REACHED ***

Storing the converged CI vectors               ... acrolien.557.cis1

                 *** DAVIDSON DONE ***

Total time for solving the CIS problem:     1.148sec

------------------------------------
TD-DFT/TDA EXCITED STATES (SINGLETS)
------------------------------------

the weight of the individual excitations are printed if larger than 1.0e-02

STATE  1:  E=   0.134739 au      3.666 eV    29571.8 cm**-1 <S**2> =   0.000000
    14a ->  15a  :     0.981494 (c=  0.99070368)
    14a ->  16a  :     0.014959 (c= -0.12230807)


-----------------------------
TD-DFT/TDA-EXCITATION SPECTRA
-----------------------------

Center of mass = ( -0.6688, -0.6978, -0.0197)
Calculating the Dipole integrals                  ... done
Transforming integrals                            ... done
Calculating the Linear Momentum integrals         ... done
Transforming integrals                            ... done
Calculating angular momentum integrals            ... done
Transforming integrals                            ... done

-----------------------------------------------------------------------------
         ABSORPTION SPECTRUM VIA TRANSITION ELECTRIC DIPOLE MOMENTS
-----------------------------------------------------------------------------
State   Energy    Wavelength  fosc         T2        TX        TY        TZ  
        (cm-1)      (nm)                 (au**2)    (au)      (au)      (au) 
-----------------------------------------------------------------------------
   1   29571.8    338.2   0.000075512   0.00084   0.02221   0.00235  -0.01849

-----------------------------------------------------------------------------
         ABSORPTION SPECTRUM VIA TRANSITION VELOCITY DIPOLE MOMENTS
-----------------------------------------------------------------------------
State   Energy    Wavelength   fosc        P2         PX        PY        PZ  
        (cm-1)      (nm)                 (au**2)     (au)      (au)      (au) 
-----------------------------------------------------------------------------
   1   29571.8    338.2   0.000379361   0.00008   0.00567  -0.00018  -0.00667

-------------------------------------------------------------------
                             CD SPECTRUM
-------------------------------------------------------------------
State  Energy     Wavelength     R         MX        MY        MZ   
       (cm-1)       (nm)     (1e40*cgs)   (au)      (au)      (au)  
-------------------------------------------------------------------
   1   29571.8    338.2      0.02921   0.03814   0.32477   0.08376

-------------------------------------------------------------------
         CD SPECTRUM VIA TRANSITION VELOCITY DIPOLE MOMENTS        
-------------------------------------------------------------------
State  Energy     Wavelength     R         MX        MY        MZ   
       (cm-1)       (nm)     (1e40*cgs)   (au)      (au)      (au)  
-------------------------------------------------------------------
   1   29571.8    338.2     -1.40054   0.03814   0.32477   0.08376

Total run time:        2.268 sec

           *** ORCA-CIS/TD-DFT FINISHED WITHOUT ERROR ***

Maximum memory used throughout the entire CIS-calculation: 42.9 MB

-----------------------
CIS/TD-DFT TOTAL ENERGY
-----------------------

    E(SCF)  =   -191.700680010 Eh
    DE(CIS) =      0.134739211 Eh (Root  1)
    ----------------------------- ---------
    E(tot)  =   -191.565940799 Eh


-------------------------   --------------------
FINAL SINGLE POINT ENERGY      -191.565940798917
-------------------------   --------------------


                            ***************************************
                            *     ORCA property calculations      *
                            ***************************************

                                    ---------------------
                                    Active property flags
                                    ---------------------
   (+) Dipole Moment


------------------------------------------------------------------------------
                       ORCA ELECTRIC PROPERTIES CALCULATION
------------------------------------------------------------------------------

Dipole Moment Calculation                       ... on
Quadrupole Moment Calculation                   ... off
Polarizability Calculation                      ... off
GBWName                                         ... acrolien.557.gbw
Electron density                                ... acrolien.557.scfp
The origin for moment calculation is the CENTER OF MASS  = (-0.668765, -0.697831 -0.019729)

-------------
DIPOLE MOMENT
-------------
                                X             Y             Z
Electronic contribution:     -2.28842      -1.73104       0.01132
Nuclear contribution   :      2.60641       2.66020       0.05003
                        -----------------------------------------
Total Dipole Moment    :      0.31798       0.92916       0.06135
                        -----------------------------------------
Magnitude (a.u.)       :      0.98398
Magnitude (Debye)      :      2.50108



--------------------
Rotational spectrum 
--------------------
 
Rotational constants in cm-1:     0.761866     0.208325     0.164171 
Rotational constants in MHz : 22840.180211  6245.431118  4921.718282 

 Dipole components along the rotational axes: 
x,y,z [a.u.] :     0.757398    -0.627914     0.016994 
x,y,z [Debye]:     1.925152    -1.596030     0.043195 

 

Timings for individual modules:

Sum of individual times         ...       61.280 sec (=   1.021 min)
GTO integral calculation        ...        1.744 sec (=   0.029 min)   2.8 %
SCF iterations                  ...       57.099 sec (=   0.952 min)  93.2 %
CIS module                      ...        2.436 sec (=   0.041 min)   4.0 %
                             ****ORCA TERMINATED NORMALLY****
TOTAL RUN TIME: 0 days 0 hours 1 minutes 1 seconds 474 msec
