
                                 *****************
                                 * O   R   C   A *
                                 *****************

                                            #,                                       
                                            ###                                      
                                            ####                                     
                                            #####                                    
                                            ######                                   
                                           ########,                                 
                                     ,,################,,,,,                         
                               ,,#################################,,                 
                          ,,##########################################,,             
                       ,#########################################, ''#####,          
                    ,#############################################,,   '####,        
                  ,##################################################,,,,####,       
                ,###########''''           ''''###############################       
              ,#####''   ,,,,##########,,,,          '''####'''          '####       
            ,##' ,,,,###########################,,,                        '##       
           ' ,,###''''                  '''############,,,                           
         ,,##''                                '''############,,,,        ,,,,,,###''
      ,#''                                            '''#######################'''  
     '                                                          ''''####''''         
             ,#######,   #######,   ,#######,      ##                                
            ,#'     '#,  ##    ##  ,#'     '#,    #''#        ######   ,####,        
            ##       ##  ##   ,#'  ##            #'  '#       #        #'  '#        
            ##       ##  #######   ##           ,######,      #####,   #    #        
            '#,     ,#'  ##    ##  '#,     ,#' ,#      #,         ##   #,  ,#        
             '#######'   ##     ##  '#######'  #'      '#     #####' # '####'        



                  #######################################################
                  #                        -***-                        #
                  #          Department of theory and spectroscopy      #
                  #    Directorship and core code : Frank Neese         #
                  #        Max Planck Institute fuer Kohlenforschung    #
                  #                Kaiser Wilhelm Platz 1               #
                  #                 D-45470 Muelheim/Ruhr               #
                  #                      Germany                        #
                  #                                                     #
                  #                  All rights reserved                #
                  #                        -***-                        #
                  #######################################################


                         Program Version 5.0.3 -  RELEASE  -


 With contributions from (in alphabetic order):
   Daniel Aravena         : Magnetic Suceptibility
   Michael Atanasov       : Ab Initio Ligand Field Theory (pilot matlab implementation)
   Alexander A. Auer      : GIAO ZORA, VPT2 properties, NMR spectrum
   Ute Becker             : Parallelization
   Giovanni Bistoni       : ED, misc. LED, open-shell LED, HFLD
   Martin Brehm           : Molecular dynamics
   Dmytro Bykov           : SCF Hessian
   Vijay G. Chilkuri      : MRCI spin determinant printing, contributions to CSF-ICE
   Dipayan Datta          : RHF DLPNO-CCSD density
   Achintya Kumar Dutta   : EOM-CC, STEOM-CC
   Dmitry Ganyushin       : Spin-Orbit,Spin-Spin,Magnetic field MRCI
   Miquel Garcia          : C-PCM and meta-GGA Hessian, CC/C-PCM, Gaussian charge scheme
   Yang Guo               : DLPNO-NEVPT2, F12-NEVPT2, CIM, IAO-localization
   Andreas Hansen         : Spin unrestricted coupled pair/coupled cluster methods
   Benjamin Helmich-Paris : MC-RPA, TRAH-SCF, COSX integrals
   Lee Huntington         : MR-EOM, pCC
   Robert Izsak           : Overlap fitted RIJCOSX, COSX-SCS-MP3, EOM
   Marcus Kettner         : VPT2
   Christian Kollmar      : KDIIS, OOCD, Brueckner-CCSD(T), CCSD density, CASPT2, CASPT2-K
   Simone Kossmann        : Meta GGA functionals, TD-DFT gradient, OOMP2, MP2 Hessian
   Martin Krupicka        : Initial AUTO-CI
   Lucas Lang             : DCDCAS
   Marvin Lechner         : AUTO-CI (C++ implementation), FIC-MRCC
   Dagmar Lenk            : GEPOL surface, SMD
   Dimitrios Liakos       : Extrapolation schemes; Compound Job, initial MDCI parallelization
   Dimitrios Manganas     : Further ROCIS development; embedding schemes
   Dimitrios Pantazis     : SARC Basis sets
   Anastasios Papadopoulos: AUTO-CI, single reference methods and gradients
   Taras Petrenko         : DFT Hessian,TD-DFT gradient, ASA, ECA, R-Raman, ABS, FL, XAS/XES, NRVS
   Peter Pinski           : DLPNO-MP2, DLPNO-MP2 Gradient
   Christoph Reimann      : Effective Core Potentials
   Marius Retegan         : Local ZFS, SOC
   Christoph Riplinger    : Optimizer, TS searches, QM/MM, DLPNO-CCSD(T), (RO)-DLPNO pert. Triples
   Tobias Risthaus        : Range-separated hybrids, TD-DFT gradient, RPA, STAB
   Michael Roemelt        : Original ROCIS implementation
   Masaaki Saitow         : Open-shell DLPNO-CCSD energy and density
   Barbara Sandhoefer     : DKH picture change effects
   Avijit Sen             : IP-ROCIS
   Kantharuban Sivalingam : CASSCF convergence, NEVPT2, FIC-MRCI
   Bernardo de Souza      : ESD, SOC TD-DFT
   Georgi Stoychev        : AutoAux, RI-MP2 NMR, DLPNO-MP2 response
   Willem Van den Heuvel  : Paramagnetic NMR
   Boris Wezisla          : Elementary symmetry handling
   Frank Wennmohs         : Technical directorship


 We gratefully acknowledge several colleagues who have allowed us to
 interface, adapt or use parts of their codes:
   Stefan Grimme, W. Hujo, H. Kruse, P. Pracht,  : VdW corrections, initial TS optimization,
                  C. Bannwarth, S. Ehlert          DFT functionals, gCP, sTDA/sTD-DF
   Ed Valeev, F. Pavosevic, A. Kumar             : LibInt (2-el integral package), F12 methods
   Garnet Chan, S. Sharma, J. Yang, R. Olivares  : DMRG
   Ulf Ekstrom                                   : XCFun DFT Library
   Mihaly Kallay                                 : mrcc  (arbitrary order and MRCC methods)
   Jiri Pittner, Ondrej Demel                    : Mk-CCSD
   Frank Weinhold                                : gennbo (NPA and NBO analysis)
   Christopher J. Cramer and Donald G. Truhlar   : smd solvation model
   Lars Goerigk                                  : TD-DFT with DH, B97 family of functionals
   V. Asgeirsson, H. Jonsson                     : NEB implementation
   FAccTs GmbH                                   : IRC, NEB, NEB-TS, DLPNO-Multilevel, CI-OPT
                                                   MM, QMMM, 2- and 3-layer-ONIOM, Crystal-QMMM,
                                                   LR-CPCM, SF, NACMEs, symmetry and pop. for TD-DFT,
                                                   nearIR, NL-DFT gradient (VV10), updates on ESD,
                                                   ML-optimized integration grids
   S Lehtola, MJT Oliveira, MAL Marques          : LibXC Library
   Liviu Ungur et al                             : ANISO software


 Your calculation uses the libint2 library for the computation of 2-el integrals
 For citations please refer to: http://libint.valeyev.net

 Your ORCA version has been built with support for libXC version: 5.1.0
 For citations please refer to: https://tddft.org/programs/libxc/

 This ORCA versions uses:
   CBLAS   interface :  Fast vector & matrix operations
   LAPACKE interface :  Fast linear algebra routines
   SCALAPACK package :  Parallel linear algebra routines
   Shared memory     :  Shared parallel matrices
   BLAS/LAPACK       :  OpenBLAS 0.3.15  USE64BITINT DYNAMIC_ARCH NO_AFFINITY Haswell SINGLE_THREADED
        Core in use  :  Haswell
   Copyright (c) 2011-2014, The OpenBLAS Project


================================================================================

----- Orbital basis set information -----
Your calculation utilizes the basis: 6-31G
   H-He, Li-Ne : W. J. Hehre, R. Ditchfield and J.A. Pople, J. Chem. Phys. 56, 2257 (1972).
                 Note: He and Ne are unpublished basis sets taken from the Gaussian program.
                 Note: Li and B from J. D. Dill and J. A. Pople, J. Chem. Phys. 62, 2921 (1975).
   Na - Ar     : M. M. Francl, W. J. Pietro, W. J. Hehre, J. S. Binkley, M. S. Gordon, 
                 D. J. DeFrees and J. A. Pople, J. Chem. Phys. 77, 3654 (1982).
   K - Zn      : V. A. Rassolov, J. A. Pople, M. A. Ratner, and T. L. Windus, J. Chem. Phys. 109, 1223 (1998).

----- AuxJ basis set information -----
Your calculation utilizes the auxiliary basis: def2/J
   F. Weigend, Phys. Chem. Chem. Phys. 8, 1057 (2006).

================================================================================
                                        WARNINGS
                       Please study these warnings very carefully!
================================================================================

INFO   : Checking CIS options ...

INFO   : the flag for use of the SHARK integral package has been found!

================================================================================
                                       INPUT FILE
================================================================================
NAME = acrolien.676.com
|  1> ! B3LYP 6-31G
|  2> !TightSCF
|  3> %scf
|  4>  ConvForced true
|  5>  convergence tight
|  6>  MaxIter 500
|  7> end
|  8>  
|  9> %tddft 
| 10>  nroots 1
| 11> end
| 12> 
| 13> # 	17285
| 14> * xyz 0 1
| 15> 		C   -1.218675  -0.310047   0.023765
| 16> 		O   -1.392767  -1.423652  -0.509309
| 17> 		C   -0.043341   0.525993  -0.227819
| 18> 		C    1.280240   0.038820   0.044932
| 19> 		H   -1.882690   0.013266   0.757595
| 20> 		H   -0.315945   1.489779  -0.477244
| 21> 		H    1.452693  -0.933946   0.377919
| 22> 		H    2.133922   0.580372  -0.051484
| 23> *
| 24> 
| 25>                          ****END OF INPUT****
================================================================================

                       ****************************
                       * Single Point Calculation *
                       ****************************

---------------------------------
CARTESIAN COORDINATES (ANGSTROEM)
---------------------------------
  C     -1.218675   -0.310047    0.023765
  O     -1.392767   -1.423652   -0.509309
  C     -0.043341    0.525993   -0.227819
  C      1.280240    0.038820    0.044932
  H     -1.882690    0.013266    0.757595
  H     -0.315945    1.489779   -0.477244
  H      1.452693   -0.933946    0.377919
  H      2.133922    0.580372   -0.051484

----------------------------
CARTESIAN COORDINATES (A.U.)
----------------------------
  NO LB      ZA    FRAG     MASS         X           Y           Z
   0 C     6.0000    0    12.011   -2.302962   -0.585904    0.044909
   1 O     8.0000    0    15.999   -2.631948   -2.690312   -0.962455
   2 C     6.0000    0    12.011   -0.081903    0.993983   -0.430516
   3 C     6.0000    0    12.011    2.419303    0.073359    0.084909
   4 H     1.0000    0     1.008   -3.557768    0.025069    1.431647
   5 H     1.0000    0     1.008   -0.597050    2.815274   -0.901860
   6 H     1.0000    0     1.008    2.745192   -1.764902    0.714163
   7 H     1.0000    0     1.008    4.032528    1.096744   -0.097291

--------------------------------
INTERNAL COORDINATES (ANGSTROEM)
--------------------------------
 C      0   0   0     0.000000000000     0.00000000     0.00000000
 O      1   0   0     1.246832791502     0.00000000     0.00000000
 C      1   2   0     1.464126839523   123.27254665     0.00000000
 C      3   1   2     1.436522642874   120.88817516   301.48354588
 H      1   2   3     1.041130964430   119.31790149   186.42225701
 H      3   1   2     1.032186623260   111.26541704   129.42331999
 H      4   3   1     1.042542119117   121.97102228     3.40522157
 H      4   3   1     1.015552840026   125.14491345   183.90238873

---------------------------
INTERNAL COORDINATES (A.U.)
---------------------------
 C      0   0   0     0.000000000000     0.00000000     0.00000000
 O      1   0   0     2.356172510732     0.00000000     0.00000000
 C      1   2   0     2.766798752022   123.27254665     0.00000000
 C      3   1   2     2.714634380209   120.88817516   301.48354588
 H      1   2   3     1.967452392317   119.31790149   186.42225701
 H      3   1   2     1.950550037058   111.26541704   129.42331999
 H      4   3   1     1.970119088210   121.97102228     3.40522157
 H      4   3   1     1.919116742174   125.14491345   183.90238873

---------------------
BASIS SET INFORMATION
---------------------
There are 3 groups of distinct atoms

 Group   1 Type C   : 10s4p contracted to 3s2p pattern {631/31}
 Group   2 Type O   : 10s4p contracted to 3s2p pattern {631/31}
 Group   3 Type H   : 4s contracted to 2s pattern {31}

Atom   0C    basis set group =>   1
Atom   1O    basis set group =>   2
Atom   2C    basis set group =>   1
Atom   3C    basis set group =>   1
Atom   4H    basis set group =>   3
Atom   5H    basis set group =>   3
Atom   6H    basis set group =>   3
Atom   7H    basis set group =>   3
---------------------------------
AUXILIARY/J BASIS SET INFORMATION
---------------------------------
There are 3 groups of distinct atoms

 Group   1 Type C   : 12s5p4d2f1g contracted to 6s4p3d1f1g pattern {711111/2111/211/2/1}
 Group   2 Type O   : 12s5p4d2f1g contracted to 6s4p3d1f1g pattern {711111/2111/211/2/1}
 Group   3 Type H   : 5s2p1d contracted to 3s1p1d pattern {311/2/1}

Atom   0C    basis set group =>   1
Atom   1O    basis set group =>   2
Atom   2C    basis set group =>   1
Atom   3C    basis set group =>   1
Atom   4H    basis set group =>   3
Atom   5H    basis set group =>   3
Atom   6H    basis set group =>   3
Atom   7H    basis set group =>   3
------------------------------------------------------------------------------
                           ORCA GTO INTEGRAL CALCULATION
                           -- RI-GTO INTEGRALS CHOSEN --
------------------------------------------------------------------------------
------------------------------------------------------------------------------
                   ___                                                        
                  /   \      - P O W E R E D   B Y -                         
                 /     \                                                     
                 |  |  |   _    _      __       _____    __    __             
                 |  |  |  | |  | |    /  \     |  _  \  |  |  /  |          
                  \  \/   | |  | |   /    \    | | | |  |  | /  /          
                 / \  \   | |__| |  /  /\  \   | |_| |  |  |/  /          
                |  |  |   |  __  | /  /__\  \  |    /   |      \           
                |  |  |   | |  | | |   __   |  |    \   |  |\   \          
                \     /   | |  | | |  |  |  |  | |\  \  |  | \   \       
                 \___/    |_|  |_| |__|  |__|  |_| \__\ |__|  \__/        
                                                                              
                      - O R C A' S   B I G   F R I E N D -                    
                                      &                                       
                       - I N T E G R A L  F E E D E R -                       
                                                                              
 v1 FN, 2020, v2 2021                                                         
------------------------------------------------------------------------------


Reading SHARK input file acrolien.676.SHARKINP.tmp ... ok
----------------------
SHARK INTEGRAL PACKAGE
----------------------

Number of atoms                             ...      8
Number of basis functions                   ...     44
Number of shells                            ...     28
Maximum angular momentum                    ...      1
Integral batch strategy                     ... SHARK/LIBINT Hybrid
RI-J (if used) integral strategy            ... SPLIT-RIJ (Revised 2003 algorithm where possible)
Printlevel                                  ...      1
Contraction scheme used                     ... SEGMENTED contraction
Coulomb Range Separation                    ... NOT USED
Exchange Range Separation                   ... NOT USED
Finite Nucleus Model                        ... NOT USED
Auxiliary Coulomb fitting basis             ... AVAILABLE
   # of basis functions in Aux-J            ...    240
   # of shells in Aux-J                     ...     80
   Maximum angular momentum in Aux-J        ...      4
Auxiliary J/K fitting basis                 ... NOT available
Auxiliary Correlation fitting basis         ... NOT available
Auxiliary 'external' fitting basis          ... NOT available
Integral threshold                          ...     2.500000e-11
Primitive cut-off                           ...     2.500000e-12
Primitive pair pre-selection threshold      ...     2.500000e-12

Calculating pre-screening integrals         ... done (  0.0 sec) Dimension = 28
Organizing shell pair data                  ... done (  0.1 sec)
Shell pair information
Total number of shell pairs                 ...       406
Shell pairs after pre-screening             ...       401
Total number of primitive shell pairs       ...      2724
Primitive shell pairs kept                  ...      1994
          la=0 lb=0:    205 shell pairs
          la=1 lb=0:    160 shell pairs
          la=1 lb=1:     36 shell pairs

Calculating one electron integrals          ... done (  0.0 sec)
Calculating RI/J V-Matrix + Cholesky decomp.... done (  0.2 sec)
Calculating Nuclear repulsion               ... done (  0.0 sec) ENN=    102.838228725239 Eh

SHARK setup successfully completed in   1.2 seconds

Maximum memory used throughout the entire GTOINT-calculation: 8.3 MB
-------------------------------------------------------------------------------
                                 ORCA SCF
-------------------------------------------------------------------------------

------------
SCF SETTINGS
------------
Hamiltonian:
 Density Functional     Method          .... DFT(GTOs)
 Exchange Functional    Exchange        .... B88
   X-Alpha parameter    XAlpha          ....  0.666667
   Becke's b parameter  XBeta           ....  0.004200
 Correlation Functional Correlation     .... LYP
 LDA part of GGA corr.  LDAOpt          .... VWN-5
 Gradients option       PostSCFGGA      .... off
 Hybrid DFT is turned on
   Fraction HF Exchange ScalHFX         ....  0.200000
   Scaling of DF-GGA-X  ScalDFX         ....  0.720000
   Scaling of DF-GGA-C  ScalDFC         ....  0.810000
   Scaling of DF-LDA-C  ScalLDAC        ....  1.000000
   Perturbative correction              ....  0.000000
   Density functional embedding theory  .... OFF
   NL short-range parameter             ....  4.800000
 RI-approximation to the Coulomb term is turned on
   Number of AuxJ basis functions       .... 240
   RIJ-COSX (HFX calculated with COS-X)).... on


General Settings:
 Integral files         IntName         .... acrolien.676
 Hartree-Fock type      HFTyp           .... RHF
 Total Charge           Charge          ....    0
 Multiplicity           Mult            ....    1
 Number of Electrons    NEL             ....   30
 Basis Dimension        Dim             ....   44
 Nuclear Repulsion      ENuc            ....    102.8382287252 Eh

Convergence Acceleration:
 DIIS                   CNVDIIS         .... on
   Start iteration      DIISMaxIt       ....    12
   Startup error        DIISStart       ....  0.200000
   # of expansion vecs  DIISMaxEq       ....     5
   Bias factor          DIISBfac        ....   1.050
   Max. coefficient     DIISMaxC        ....  10.000
 Trust-Rad. Augm. Hess. CNVTRAH         .... auto
   Auto Start mean grad. ratio tolernc. ....  1.125000
   Auto Start start iteration           ....    20
   Auto Start num. interpolation iter.  ....    10
   Max. Number of Micro iterations      ....    16
   Max. Number of Macro iterations      .... Maxiter - #DIIS iter
   Number of Davidson start vectors     ....     2
   Converg. threshold I  (grad. norm)   ....   1.000e-05
   Converg. threshold II (energy diff.) ....   1.000e-08
   Grad. Scal. Fac. for Micro threshold ....   0.100
   Minimum threshold for Micro iter.    ....   0.010
   NR start threshold (gradient norm)   ....   0.001
   Initial trust radius                 ....   0.400
   Minimum AH scaling param. (alpha)    ....   1.000
   Maximum AH scaling param. (alpha)    .... 1000.000
   Orbital update algorithm             .... Taylor
   White noise on init. David. guess    .... on
   Maximum white noise                  ....   0.010
   Quad. conv. algorithm                .... NR
 SOSCF                  CNVSOSCF        .... on
   Start iteration      SOSCFMaxIt      ....   150
   Startup grad/error   SOSCFStart      ....  0.003300
 Level Shifting         CNVShift        .... on
   Level shift para.    LevelShift      ....    0.2500
   Turn off err/grad.   ShiftErr        ....    0.0010
 Zerner damping         CNVZerner       .... off
 Static damping         CNVDamp         .... on
   Fraction old density DampFac         ....    0.7000
   Max. Damping (<1)    DampMax         ....    0.9800
   Min. Damping (>=0)   DampMin         ....    0.0000
   Turn off err/grad.   DampErr         ....    0.1000
 Fernandez-Rico         CNVRico         .... off

SCF Procedure:
 Maximum # iterations   MaxIter         ....   500
 SCF integral mode      SCFMode         .... Direct
   Integral package                     .... SHARK and LIBINT hybrid scheme
 Reset frequency        DirectResetFreq ....    20
 Integral Threshold     Thresh          ....  2.500e-11 Eh
 Primitive CutOff       TCut            ....  2.500e-12 Eh

Convergence Tolerance:
 Convergence Check Mode ConvCheckMode   .... Total+1el-Energy
 Convergence forced     ConvForced      .... 1
 Energy Change          TolE            ....  1.000e-08 Eh
 1-El. energy change                    ....  1.000e-05 Eh
 Orbital Gradient       TolG            ....  1.000e-05
 Orbital Rotation angle TolX            ....  1.000e-05
 DIIS Error             TolErr          ....  5.000e-07


Diagonalization of the overlap matrix:
Smallest eigenvalue                        ... 7.529e-03
Time for diagonalization                   ...    0.060 sec
Threshold for overlap eigenvalues          ... 1.000e-08
Number of eigenvalues below threshold      ... 0
Time for construction of square roots      ...    0.062 sec
Total time needed                          ...    0.122 sec

Time for model grid setup =    0.158 sec

------------------------------
INITIAL GUESS: MODEL POTENTIAL
------------------------------
Loading Hartree-Fock densities                     ... done
Calculating cut-offs                               ... done
Initializing the effective Hamiltonian             ... done
Setting up the integral package (SHARK)            ... done
Starting the Coulomb interaction                   ... done (   1.1 sec)
Reading the grid                                   ... done
Mapping shells                                     ... done
Starting the XC term evaluation                    ... done (   0.0 sec)
  promolecular density results
     # of electrons  =     29.998233680
     EX              =    -24.739560835
     EC              =     -0.995030433
     EX+EC           =    -25.734591268
Transforming the Hamiltonian                       ... done (   0.4 sec)
Diagonalizing the Hamiltonian                      ... done (   0.0 sec)
Back transforming the eigenvectors                 ... done (   0.0 sec)
Now organizing SCF variables                       ... done
                      ------------------
                      INITIAL GUESS DONE (   2.1 sec)
                      ------------------
-------------------
DFT GRID GENERATION
-------------------

General Integration Accuracy     IntAcc      ... 4.388
Radial Grid Type                 RadialGrid  ... OptM3 with GC (2021)
Angular Grid (max. ang.)         AngularGrid ... 4 (Lebedev-302)
Angular grid pruning method      GridPruning ... 4 (adaptive)
Weight generation scheme         WeightScheme... Becke
Basis function cutoff            BFCut       ... 1.0000e-11
Integration weight cutoff        WCut        ... 1.0000e-14
Angular grids for H and He will be reduced by one unit
Partially contracted basis set               ... off
Rotationally invariant grid construction     ... off

Total number of grid points                  ...    37400
Total number of batches                      ...      589
Average number of points per batch           ...       63
Average number of grid points per atom       ...     4675
Time for grid setup =    0.562 sec

--------------------
COSX GRID GENERATION
--------------------

GRIDX 1
-------
General Integration Accuracy     IntAcc      ... 3.816
Radial Grid Type                 RadialGrid  ... OptM3 with GC (2021)
Angular Grid (max. ang.)         AngularGrid ... 1 (Lebedev-50)
Angular grid pruning method      GridPruning ... 4 (adaptive)
Weight generation scheme         WeightScheme... Becke
Basis function cutoff            BFCut       ... 1.0000e-11
Integration weight cutoff        WCut        ... 1.0000e-14
Angular grids for H and He will be reduced by one unit
Partially contracted basis set               ... on
Rotationally invariant grid construction     ... off

Total number of grid points                  ...     4804
Total number of batches                      ...       79
Average number of points per batch           ...       60
Average number of grid points per atom       ...      600
UseSFitting                                  ... on

GRIDX 2
-------
General Integration Accuracy     IntAcc      ... 4.020
Radial Grid Type                 RadialGrid  ... OptM3 with GC (2021)
Angular Grid (max. ang.)         AngularGrid ... 2 (Lebedev-110)
Angular grid pruning method      GridPruning ... 4 (adaptive)
Weight generation scheme         WeightScheme... Becke
Basis function cutoff            BFCut       ... 1.0000e-11
Integration weight cutoff        WCut        ... 1.0000e-14
Angular grids for H and He will be reduced by one unit
Partially contracted basis set               ... on
Rotationally invariant grid construction     ... off

Total number of grid points                  ...    10571
Total number of batches                      ...      168
Average number of points per batch           ...       62
Average number of grid points per atom       ...     1321
UseSFitting                                  ... on

GRIDX 3
-------
General Integration Accuracy     IntAcc      ... 4.338
Radial Grid Type                 RadialGrid  ... OptM3 with GC (2021)
Angular Grid (max. ang.)         AngularGrid ... 3 (Lebedev-194)
Angular grid pruning method      GridPruning ... 4 (adaptive)
Weight generation scheme         WeightScheme... Becke
Basis function cutoff            BFCut       ... 1.0000e-11
Integration weight cutoff        WCut        ... 1.0000e-14
Angular grids for H and He will be reduced by one unit
Partially contracted basis set               ... on
Rotationally invariant grid construction     ... off

Total number of grid points                  ...    23297
Total number of batches                      ...      369
Average number of points per batch           ...       63
Average number of grid points per atom       ...     2912
UseSFitting                                  ... on

Time for X-Grid setup             =    1.982 sec

--------------
SCF ITERATIONS
--------------
ITER       Energy         Delta-E        Max-DP      RMS-DP      [F,P]     Damp
               ***  Starting incremental Fock matrix formation  ***
  0   -191.5882100205   0.000000000000 0.09222006  0.00772386  0.2414257 0.7000
  1   -191.6495628364  -0.061352815878 0.04862158  0.00453463  0.0808513 0.7000
                               ***Turning on DIIS***
  2   -191.6687051864  -0.019142350035 0.05535355  0.00579450  0.0317628 0.0000
  3   -191.7072823378  -0.038577151406 0.03506907  0.00340177  0.0379016 0.0000
  4   -191.7117100467  -0.004427708869 0.01211580  0.00105184  0.0225928 0.0000
  5   -191.7129262852  -0.001216238498 0.00263330  0.00026488  0.0037899 0.0000
                      *** Initiating the SOSCF procedure ***
                           *** Shutting down DIIS ***
                      *** Re-Reading the Fockian *** 
                      *** Removing any level shift *** 
ITER      Energy       Delta-E        Grad      Rot      Max-DP    RMS-DP
  6   -191.71296116  -0.0000348761  0.000246  0.000246  0.001069  0.000111
               *** Restarting incremental Fock matrix formation ***
  7   -191.71294143   0.0000197312  0.000298  0.001395  0.001229  0.000118
  8   -191.71293811   0.0000033210  0.000635  0.000930  0.000804  0.000071
  9   -191.71294243  -0.0000043245  0.000044  0.000114  0.000189  0.000015
 10   -191.71294239   0.0000000389  0.000063  0.000092  0.000111  0.000009
 11   -191.71294246  -0.0000000701  0.000023  0.000065  0.000087  0.000007
 12   -191.71294246   0.0000000069  0.000028  0.000037  0.000051  0.000004
                  ***Gradient check signals convergence***
              ***Rediagonalizing the Fockian in SOSCF/NRSCF***

               *****************************************************
               *                     SUCCESS                       *
               *           SCF CONVERGED AFTER  13 CYCLES          *
               *****************************************************

Old exchange energy                            =     -5.022396602 Eh
New exchange energy                            =     -5.022383180 Eh
Exchange energy change after final integration =      0.000013422 Eh
Total energy after final integration           =   -191.712929048 Eh
Final COS-X integration done in                =     0.800 sec

----------------
TOTAL SCF ENERGY
----------------

Total Energy       :         -191.71292905 Eh           -5216.77402 eV

Components:
Nuclear Repulsion  :          102.83822873 Eh            2798.37047 eV
Electronic Energy  :         -294.55115777 Eh           -8015.14449 eV
One Electron Energy:         -462.66529334 Eh          -12589.76268 eV
Two Electron Energy:          168.11413557 Eh            4574.61820 eV
Max COSX asymmetry :            0.00000135 Eh               0.00004 eV

Virial components:
Potential Energy   :         -382.57450282 Eh          -10410.38148 eV
Kinetic Energy     :          190.86157377 Eh            5193.60746 eV
Virial Ratio       :            2.00446059


DFT components:
N(Alpha)           :       14.999996821550 electrons
N(Beta)            :       14.999996821550 electrons
N(Total)           :       29.999993643099 electrons
E(X)               :      -19.993847894077 Eh       
E(C)               :       -1.182732005702 Eh       
E(XC)              :      -21.176579899779 Eh       
DFET-embed. en.    :        0.000000000000 Eh       

---------------
SCF CONVERGENCE
---------------

  Last Energy change         ...   -1.2369e-08  Tolerance :   1.0000e-08
  Last MAX-Density change    ...    2.6645e-15  Tolerance :   1.0000e-07
  Last RMS-Density change    ...    1.0953e-16  Tolerance :   5.0000e-09
  Last Orbital Gradient      ...    3.0906e-07  Tolerance :   1.0000e-05
  Last Orbital Rotation      ...    4.6469e-07  Tolerance :   1.0000e-05

             **** THE GBW FILE WAS UPDATED (acrolien.676.gbw) ****
             **** DENSITY acrolien.676.scfp WAS UPDATED ****
             **** ENERGY FILE WAS UPDATED (acrolien.676.en.tmp) ****
             **** THE GBW FILE WAS UPDATED (acrolien.676.gbw) ****
             **** DENSITY acrolien.676.scfp WAS UPDATED ****
----------------
ORBITAL ENERGIES
----------------

  NO   OCC          E(Eh)            E(eV) 
   0   2.0000     -19.146581      -521.0050 
   1   2.0000     -10.272213      -279.5211 
   2   2.0000     -10.212563      -277.8980 
   3   2.0000     -10.208650      -277.7915 
   4   2.0000      -1.046017       -28.4636 
   5   2.0000      -0.786833       -21.4108 
   6   2.0000      -0.677445       -18.4342 
   7   2.0000      -0.573674       -15.6105 
   8   2.0000      -0.507106       -13.7990 
   9   2.0000      -0.457549       -12.4505 
  10   2.0000      -0.433908       -11.8072 
  11   2.0000      -0.402584       -10.9549 
  12   2.0000      -0.368817       -10.0360 
  13   2.0000      -0.273292        -7.4366 
  14   2.0000      -0.251748        -6.8504 
  15   0.0000      -0.059676        -1.6239 
  16   0.0000       0.000137         0.0037 
  17   0.0000       0.131840         3.5876 
  18   0.0000       0.140876         3.8334 
  19   0.0000       0.155543         4.2325 
  20   0.0000       0.192394         5.2353 
  21   0.0000       0.279299         7.6001 
  22   0.0000       0.290333         7.9004 
  23   0.0000       0.329389         8.9631 
  24   0.0000       0.525673        14.3043 
  25   0.0000       0.538321        14.6484 
  26   0.0000       0.561948        15.2914 
  27   0.0000       0.590842        16.0776 
  28   0.0000       0.628365        17.0987 
  29   0.0000       0.659174        17.9370 
  30   0.0000       0.675543        18.3825 
  31   0.0000       0.693111        18.8605 
  32   0.0000       0.793283        21.5863 
  33   0.0000       0.872650        23.7460 
  34   0.0000       0.930492        25.3200 
  35   0.0000       0.947687        25.7879 
  36   0.0000       0.967434        26.3252 
  37   0.0000       0.994425        27.0597 
  38   0.0000       1.018642        27.7187 
  39   0.0000       1.037003        28.2183 
  40   0.0000       1.079692        29.3799 
  41   0.0000       1.113145        30.2902 
  42   0.0000       1.226154        33.3654 
  43   0.0000       1.709604        46.5207 

                    ********************************
                    * MULLIKEN POPULATION ANALYSIS *
                    ********************************

-----------------------
MULLIKEN ATOMIC CHARGES
-----------------------
   0 C :    0.157719
   1 O :   -0.377142
   2 C :   -0.112983
   3 C :   -0.244082
   4 H :    0.127005
   5 H :    0.145892
   6 H :    0.157149
   7 H :    0.146442
Sum of atomic charges:   -0.0000000

--------------------------------
MULLIKEN REDUCED ORBITAL CHARGES
--------------------------------
  0 C s       :     3.175263  s :     3.175263
      pz      :     0.886697  p :     2.667018
      px      :     0.988353
      py      :     0.791968
  1 O s       :     3.959488  s :     3.959488
      pz      :     1.437994  p :     4.417654
      px      :     1.673269
      py      :     1.306391
  2 C s       :     3.217210  s :     3.217210
      pz      :     0.996873  p :     2.895774
      px      :     0.921247
      py      :     0.977654
  3 C s       :     3.265102  s :     3.265102
      pz      :     0.973549  p :     2.978980
      px      :     0.977829
      py      :     1.027602
  4 H s       :     0.872995  s :     0.872995
  5 H s       :     0.854108  s :     0.854108
  6 H s       :     0.842851  s :     0.842851
  7 H s       :     0.853558  s :     0.853558


                     *******************************
                     * LOEWDIN POPULATION ANALYSIS *
                     *******************************

----------------------
LOEWDIN ATOMIC CHARGES
----------------------
   0 C :    0.111995
   1 O :   -0.246457
   2 C :   -0.151181
   3 C :   -0.176596
   4 H :    0.087893
   5 H :    0.127466
   6 H :    0.126860
   7 H :    0.120021

-------------------------------
LOEWDIN REDUCED ORBITAL CHARGES
-------------------------------
  0 C s       :     2.969224  s :     2.969224
      pz      :     0.934957  p :     2.918781
      px      :     1.023343
      py      :     0.960481
  1 O s       :     3.658342  s :     3.658342
      pz      :     1.477515  p :     4.588115
      px      :     1.704208
      py      :     1.406392
  2 C s       :     2.979737  s :     2.979737
      pz      :     1.003881  p :     3.171444
      px      :     1.075462
      py      :     1.092102
  3 C s       :     3.004078  s :     3.004078
      pz      :     0.979485  p :     3.172519
      px      :     1.080533
      py      :     1.112501
  4 H s       :     0.912107  s :     0.912107
  5 H s       :     0.872534  s :     0.872534
  6 H s       :     0.873140  s :     0.873140
  7 H s       :     0.879979  s :     0.879979


                      *****************************
                      * MAYER POPULATION ANALYSIS *
                      *****************************

  NA   - Mulliken gross atomic population
  ZA   - Total nuclear charge
  QA   - Mulliken gross atomic charge
  VA   - Mayer's total valence
  BVA  - Mayer's bonded valence
  FA   - Mayer's free valence

  ATOM       NA         ZA         QA         VA         BVA        FA
  0 C      5.8423     6.0000     0.1577     3.7714     3.7714     0.0000
  1 O      8.3771     8.0000    -0.3771     1.9796     1.9796    -0.0000
  2 C      6.1130     6.0000    -0.1130     3.7617     3.7617    -0.0000
  3 C      6.2441     6.0000    -0.2441     3.9046     3.9046    -0.0000
  4 H      0.8730     1.0000     0.1270     0.9134     0.9134    -0.0000
  5 H      0.8541     1.0000     0.1459     0.9374     0.9374     0.0000
  6 H      0.8429     1.0000     0.1571     0.9352     0.9352     0.0000
  7 H      0.8536     1.0000     0.1464     0.9341     0.9341     0.0000

  Mayer bond orders larger than 0.100000
B(  0-C ,  1-O ) :   1.8888 B(  0-C ,  2-C ) :   0.9662 B(  0-C ,  4-H ) :   0.8874 
B(  2-C ,  3-C ) :   1.9209 B(  2-C ,  5-H ) :   0.9281 B(  3-C ,  6-H ) :   0.9436 
B(  3-C ,  7-H ) :   0.9441 

-------
TIMINGS
-------

Total SCF time: 0 days 0 hours 0 min 53 sec 

Total time                  ....      53.700 sec
Sum of individual times     ....      45.628 sec  ( 85.0%)

Fock matrix formation       ....      39.598 sec  ( 73.7%)
  Split-RI-J                ....       0.666 sec  (  1.7% of F)
  Chain of spheres X        ....       4.596 sec  ( 11.6% of F)
  XC integration            ....      18.263 sec  ( 46.1% of F)
    Basis function eval.    ....       0.999 sec  (  5.5% of XC)
    Density eval.           ....       0.723 sec  (  4.0% of XC)
    XC-Functional eval.     ....       0.538 sec  (  2.9% of XC)
    XC-Potential eval.      ....       0.248 sec  (  1.4% of XC)
Diagonalization             ....       0.003 sec  (  0.0%)
Density matrix formation    ....       0.000 sec  (  0.0%)
Population analysis         ....       1.359 sec  (  2.5%)
Initial guess               ....       1.962 sec  (  3.7%)
Orbital Transformation      ....       0.000 sec  (  0.0%)
Orbital Orthonormalization  ....       0.000 sec  (  0.0%)
DIIS solution               ....       0.002 sec  (  0.0%)
SOSCF solution              ....       0.002 sec  (  0.0%)
Grid generation             ....       2.701 sec  (  5.0%)

Maximum memory used throughout the entire SCF-calculation: 46.8 MB
------------------------------------------------------------------------------
                        ORCA TD-DFT/TDA CALCULATION
------------------------------------------------------------------------------

Input orbitals are from        ... acrolien.676.gbw
CI-vector output               ... acrolien.676.cis
Tamm-Dancoff approximation     ... operative
CIS-Integral strategy          ... AO-integrals
Integral handling              ... AO integral Direct
Max. core memory used          ... 512 MB
Reference state                ... RHF
Generation of triplets         ... off
Follow IRoot                   ... off
Number of operators            ... 1
Orbital ranges used for CIS calculation:
 Operator 0:  Orbitals   4... 14  to  15... 43
XAS localization array:
 Operator 0:  Orbitals  -1... -1

-------------------
XC-INTEGRATION GRID
-------------------

General Integration Accuracy     IntAcc      ... 3.467
Radial Grid Type                 RadialGrid  ... OptM3 with GC (2021)
Angular Grid (max. ang.)         AngularGrid ... 1 (Lebedev-50)
Angular grid pruning method      GridPruning ... 4 (adaptive)
Weight generation scheme         WeightScheme... Becke
Basis function cutoff            BFCut       ... 1.0000e-11
Integration weight cutoff        WCut        ... 1.0000e-14
Angular grids for H and He will be reduced by one unit
Partially contracted basis set               ... off
Rotationally invariant grid construction     ... off

Total number of grid points                  ...     5498
Total number of batches                      ...       90
Average number of points per batch           ...       61
Average number of grid points per atom       ...      687

---------------------
COSX-INTEGRATION GRID
---------------------

General Integration Accuracy     IntAcc      ... 3.067
Radial Grid Type                 RadialGrid  ... OptM3 with GC (2021)
Angular Grid (max. ang.)         AngularGrid ... 1 (Lebedev-50)
Angular grid pruning method      GridPruning ... 4 (adaptive)
Weight generation scheme         WeightScheme... Becke
Basis function cutoff            BFCut       ... 1.0000e-11
Integration weight cutoff        WCut        ... 1.0000e-14
Angular grids for H and He will be reduced by one unit
Partially contracted basis set               ... on
Rotationally invariant grid construction     ... off

Total number of grid points                  ...     2511
Total number of batches                      ...       45
Average number of points per batch           ...       55
Average number of grid points per atom       ...      314

---------------
TD-DFT XC SETUP
---------------

DFT calculation                         ... on
Name of the grid file                   ... acrolien.676.grid_cis.tmp
Exchange functional (TD-DFT)            ... B88
   X-Alpha parameter    XAlpha (TD-DFT) ...  0.666667
   Becke's b parameter  XBeta (TD-DFT)  ...  0.004200
Correlation functional (TD-DFT)         ... LYP
 LDA part of GGA corr.  LDAOpt (TD-DFT) ... VWN-5
Hybrid DFT                              ... on
   Exchange mixing (TD-DFT)             ...  0.200
   GGA exch. scaling (TD-DFT)           ...  0.720
   GGA corr. scaling (TD-DFT)           ...  0.810

Building densities             ... done
Calculating rho(r) on the grid ... done
Building xc-kernel on the grid ... done
                    *** TD-DFT CALCULATION INITIALIZED ***

------------------------
DAVIDSON-DIAGONALIZATION
------------------------

Dimension of the eigenvalue problem            ...    319
Number of roots to be determined               ...      1
Maximum size of the expansion space            ...     10
Maximum number of iterations                   ...    100
Convergence tolerance for the residual         ...    2.500e-07
Convergence tolerance for the energies         ...    2.500e-07
Orthogonality tolerance                        ...    1.000e-14
Level Shift                                    ...    0.000e+00
Constructing the preconditioner                ... o.k.
Building the initial guess                     ... o.k.
Number of trial vectors determined             ...     10


                       ****Iteration    0****

   Memory handling for direct AO based CIS:
   Memory per vector needed      ...     1 MB
   Memory needed                 ...     0 MB
   Memory available              ...   512 MB
   Number of vectors per batch   ...   512
   Number of batches             ...     1
   Time for densities:            0.000
   Time for RI-J (Direct):        0.043
   Time for K (COSX):             0.427
   Time for XC-Integration:       0.039
   Time for Sigma-Completion:     0.000
   Size of expansion space: 3
   Lowest Energy          :     0.130792407825
   Maximum Energy change  :     0.130792407825 (vector 0)
   Maximum residual norm  :     0.000699260283

                       ****Iteration    1****
   Time for densities:            0.000
   Time for RI-J (Direct):        0.034
   Time for K (COSX):             0.260
   Time for XC-Integration:       0.022
   Time for Sigma-Completion:     0.000
   Size of expansion space: 4
   Lowest Energy          :     0.129906731195
   Maximum Energy change  :     0.000885676630 (vector 0)
   Maximum residual norm  :     0.000184188210

                       ****Iteration    2****
   Time for densities:            0.000
   Time for RI-J (Direct):        0.034
   Time for K (COSX):             0.533
   Time for XC-Integration:       0.023
   Time for Sigma-Completion:     0.000
   Size of expansion space: 5
   Lowest Energy          :     0.129725441877
   Maximum Energy change  :     0.000181289318 (vector 0)
   Maximum residual norm  :     0.000006021171

                       ****Iteration    3****
   Time for densities:            0.000
   Time for RI-J (Direct):        0.034
   Time for K (COSX):             0.108
   Time for XC-Integration:       0.022
   Time for Sigma-Completion:     0.000
   Size of expansion space: 6
   Lowest Energy          :     0.129718352936
   Maximum Energy change  :     0.000007088941 (vector 0)
   Maximum residual norm  :     0.000000304381

                       ****Iteration    4****
   Time for densities:            0.000
   Time for RI-J (Direct):        0.034
   Time for K (COSX):             0.231
   Time for XC-Integration:       0.022
   Time for Sigma-Completion:     0.000
   Size of expansion space: 7
   Lowest Energy          :     0.129717898175
   Maximum Energy change  :     0.000000454762 (vector 0)
   Maximum residual norm  :     0.000000015220

      *** CONVERGENCE OF RESIDUAL NORM REACHED ***

Storing the converged CI vectors               ... acrolien.676.cis1

                 *** DAVIDSON DONE ***

Total time for solving the CIS problem:     2.107sec

------------------------------------
TD-DFT/TDA EXCITED STATES (SINGLETS)
------------------------------------

the weight of the individual excitations are printed if larger than 1.0e-02

STATE  1:  E=   0.129718 au      3.530 eV    28469.8 cm**-1 <S**2> =   0.000000
    13a ->  15a  :     0.023388 (c=  0.15293093)
    14a ->  15a  :     0.917171 (c=  0.95769021)
    14a ->  16a  :     0.056775 (c=  0.23827464)


-----------------------------
TD-DFT/TDA-EXCITATION SPECTRA
-----------------------------

Center of mass = ( -0.6965, -0.6255, -0.3185)
Calculating the Dipole integrals                  ... done
Transforming integrals                            ... done
Calculating the Linear Momentum integrals         ... done
Transforming integrals                            ... done
Calculating angular momentum integrals            ... done
Transforming integrals                            ... done

-----------------------------------------------------------------------------
         ABSORPTION SPECTRUM VIA TRANSITION ELECTRIC DIPOLE MOMENTS
-----------------------------------------------------------------------------
State   Energy    Wavelength  fosc         T2        TX        TY        TZ  
        (cm-1)      (nm)                 (au**2)    (au)      (au)      (au) 
-----------------------------------------------------------------------------
   1   28469.8    351.2   0.000088621   0.00102  -0.03021  -0.00949  -0.00468

-----------------------------------------------------------------------------
         ABSORPTION SPECTRUM VIA TRANSITION VELOCITY DIPOLE MOMENTS
-----------------------------------------------------------------------------
State   Energy    Wavelength   fosc        P2         PX        PY        PZ  
        (cm-1)      (nm)                 (au**2)     (au)      (au)      (au) 
-----------------------------------------------------------------------------
   1   28469.8    351.2   0.000207626   0.00004   0.00348  -0.00333  -0.00414

-------------------------------------------------------------------
                             CD SPECTRUM
-------------------------------------------------------------------
State  Energy     Wavelength     R         MX        MY        MZ   
       (cm-1)       (nm)     (1e40*cgs)   (au)      (au)      (au)  
-------------------------------------------------------------------
   1   28469.8    351.2     -3.60087   0.09770   0.38117   0.22884

-------------------------------------------------------------------
         CD SPECTRUM VIA TRANSITION VELOCITY DIPOLE MOMENTS        
-------------------------------------------------------------------
State  Energy     Wavelength     R         MX        MY        MZ   
       (cm-1)       (nm)     (1e40*cgs)   (au)      (au)      (au)  
-------------------------------------------------------------------
   1   28469.8    351.2     -6.82714   0.09770   0.38117   0.22884

Total run time:        4.829 sec

           *** ORCA-CIS/TD-DFT FINISHED WITHOUT ERROR ***

Maximum memory used throughout the entire CIS-calculation: 42.9 MB

-----------------------
CIS/TD-DFT TOTAL ENERGY
-----------------------

    E(SCF)  =   -191.712929048 Eh
    DE(CIS) =      0.129717898 Eh (Root  1)
    ----------------------------- ---------
    E(tot)  =   -191.583211150 Eh


-------------------------   --------------------
FINAL SINGLE POINT ENERGY      -191.583211150018
-------------------------   --------------------


                            ***************************************
                            *     ORCA property calculations      *
                            ***************************************

                                    ---------------------
                                    Active property flags
                                    ---------------------
   (+) Dipole Moment


------------------------------------------------------------------------------
                       ORCA ELECTRIC PROPERTIES CALCULATION
------------------------------------------------------------------------------

Dipole Moment Calculation                       ... on
Quadrupole Moment Calculation                   ... off
Polarizability Calculation                      ... off
GBWName                                         ... acrolien.676.gbw
Electron density                                ... acrolien.676.scfp
The origin for moment calculation is the CENTER OF MASS  = (-0.696543, -0.625539 -0.318460)

-------------
DIPOLE MOMENT
-------------
                                X             Y             Z
Electronic contribution:     -2.18255      -1.30938      -0.70666
Nuclear contribution   :      2.67025       2.30447       1.19665
                        -----------------------------------------
Total Dipole Moment    :      0.48770       0.99509       0.48998
                        -----------------------------------------
Magnitude (a.u.)       :      1.21167
Magnitude (Debye)      :      3.07982



--------------------
Rotational spectrum 
--------------------
 
Rotational constants in cm-1:     0.788500     0.184551     0.157854 
Rotational constants in MHz : 23638.644260  5532.699770  4732.343763 

 Dipole components along the rotational axes: 
x,y,z [a.u.] :    -0.956452    -0.671103    -0.320885 
x,y,z [Debye]:    -2.431107    -1.705809    -0.815626 

 

Timings for individual modules:

Sum of individual times         ...       60.338 sec (=   1.006 min)
GTO integral calculation        ...        1.285 sec (=   0.021 min)   2.1 %
SCF iterations                  ...       54.137 sec (=   0.902 min)  89.7 %
CIS module                      ...        4.915 sec (=   0.082 min)   8.1 %
                             ****ORCA TERMINATED NORMALLY****
TOTAL RUN TIME: 0 days 0 hours 1 minutes 1 seconds 32 msec
