
                                 *****************
                                 * O   R   C   A *
                                 *****************

                                            #,                                       
                                            ###                                      
                                            ####                                     
                                            #####                                    
                                            ######                                   
                                           ########,                                 
                                     ,,################,,,,,                         
                               ,,#################################,,                 
                          ,,##########################################,,             
                       ,#########################################, ''#####,          
                    ,#############################################,,   '####,        
                  ,##################################################,,,,####,       
                ,###########''''           ''''###############################       
              ,#####''   ,,,,##########,,,,          '''####'''          '####       
            ,##' ,,,,###########################,,,                        '##       
           ' ,,###''''                  '''############,,,                           
         ,,##''                                '''############,,,,        ,,,,,,###''
      ,#''                                            '''#######################'''  
     '                                                          ''''####''''         
             ,#######,   #######,   ,#######,      ##                                
            ,#'     '#,  ##    ##  ,#'     '#,    #''#        ######   ,####,        
            ##       ##  ##   ,#'  ##            #'  '#       #        #'  '#        
            ##       ##  #######   ##           ,######,      #####,   #    #        
            '#,     ,#'  ##    ##  '#,     ,#' ,#      #,         ##   #,  ,#        
             '#######'   ##     ##  '#######'  #'      '#     #####' # '####'        



                  #######################################################
                  #                        -***-                        #
                  #          Department of theory and spectroscopy      #
                  #    Directorship and core code : Frank Neese         #
                  #        Max Planck Institute fuer Kohlenforschung    #
                  #                Kaiser Wilhelm Platz 1               #
                  #                 D-45470 Muelheim/Ruhr               #
                  #                      Germany                        #
                  #                                                     #
                  #                  All rights reserved                #
                  #                        -***-                        #
                  #######################################################


                         Program Version 5.0.3 -  RELEASE  -


 With contributions from (in alphabetic order):
   Daniel Aravena         : Magnetic Suceptibility
   Michael Atanasov       : Ab Initio Ligand Field Theory (pilot matlab implementation)
   Alexander A. Auer      : GIAO ZORA, VPT2 properties, NMR spectrum
   Ute Becker             : Parallelization
   Giovanni Bistoni       : ED, misc. LED, open-shell LED, HFLD
   Martin Brehm           : Molecular dynamics
   Dmytro Bykov           : SCF Hessian
   Vijay G. Chilkuri      : MRCI spin determinant printing, contributions to CSF-ICE
   Dipayan Datta          : RHF DLPNO-CCSD density
   Achintya Kumar Dutta   : EOM-CC, STEOM-CC
   Dmitry Ganyushin       : Spin-Orbit,Spin-Spin,Magnetic field MRCI
   Miquel Garcia          : C-PCM and meta-GGA Hessian, CC/C-PCM, Gaussian charge scheme
   Yang Guo               : DLPNO-NEVPT2, F12-NEVPT2, CIM, IAO-localization
   Andreas Hansen         : Spin unrestricted coupled pair/coupled cluster methods
   Benjamin Helmich-Paris : MC-RPA, TRAH-SCF, COSX integrals
   Lee Huntington         : MR-EOM, pCC
   Robert Izsak           : Overlap fitted RIJCOSX, COSX-SCS-MP3, EOM
   Marcus Kettner         : VPT2
   Christian Kollmar      : KDIIS, OOCD, Brueckner-CCSD(T), CCSD density, CASPT2, CASPT2-K
   Simone Kossmann        : Meta GGA functionals, TD-DFT gradient, OOMP2, MP2 Hessian
   Martin Krupicka        : Initial AUTO-CI
   Lucas Lang             : DCDCAS
   Marvin Lechner         : AUTO-CI (C++ implementation), FIC-MRCC
   Dagmar Lenk            : GEPOL surface, SMD
   Dimitrios Liakos       : Extrapolation schemes; Compound Job, initial MDCI parallelization
   Dimitrios Manganas     : Further ROCIS development; embedding schemes
   Dimitrios Pantazis     : SARC Basis sets
   Anastasios Papadopoulos: AUTO-CI, single reference methods and gradients
   Taras Petrenko         : DFT Hessian,TD-DFT gradient, ASA, ECA, R-Raman, ABS, FL, XAS/XES, NRVS
   Peter Pinski           : DLPNO-MP2, DLPNO-MP2 Gradient
   Christoph Reimann      : Effective Core Potentials
   Marius Retegan         : Local ZFS, SOC
   Christoph Riplinger    : Optimizer, TS searches, QM/MM, DLPNO-CCSD(T), (RO)-DLPNO pert. Triples
   Tobias Risthaus        : Range-separated hybrids, TD-DFT gradient, RPA, STAB
   Michael Roemelt        : Original ROCIS implementation
   Masaaki Saitow         : Open-shell DLPNO-CCSD energy and density
   Barbara Sandhoefer     : DKH picture change effects
   Avijit Sen             : IP-ROCIS
   Kantharuban Sivalingam : CASSCF convergence, NEVPT2, FIC-MRCI
   Bernardo de Souza      : ESD, SOC TD-DFT
   Georgi Stoychev        : AutoAux, RI-MP2 NMR, DLPNO-MP2 response
   Willem Van den Heuvel  : Paramagnetic NMR
   Boris Wezisla          : Elementary symmetry handling
   Frank Wennmohs         : Technical directorship


 We gratefully acknowledge several colleagues who have allowed us to
 interface, adapt or use parts of their codes:
   Stefan Grimme, W. Hujo, H. Kruse, P. Pracht,  : VdW corrections, initial TS optimization,
                  C. Bannwarth, S. Ehlert          DFT functionals, gCP, sTDA/sTD-DF
   Ed Valeev, F. Pavosevic, A. Kumar             : LibInt (2-el integral package), F12 methods
   Garnet Chan, S. Sharma, J. Yang, R. Olivares  : DMRG
   Ulf Ekstrom                                   : XCFun DFT Library
   Mihaly Kallay                                 : mrcc  (arbitrary order and MRCC methods)
   Jiri Pittner, Ondrej Demel                    : Mk-CCSD
   Frank Weinhold                                : gennbo (NPA and NBO analysis)
   Christopher J. Cramer and Donald G. Truhlar   : smd solvation model
   Lars Goerigk                                  : TD-DFT with DH, B97 family of functionals
   V. Asgeirsson, H. Jonsson                     : NEB implementation
   FAccTs GmbH                                   : IRC, NEB, NEB-TS, DLPNO-Multilevel, CI-OPT
                                                   MM, QMMM, 2- and 3-layer-ONIOM, Crystal-QMMM,
                                                   LR-CPCM, SF, NACMEs, symmetry and pop. for TD-DFT,
                                                   nearIR, NL-DFT gradient (VV10), updates on ESD,
                                                   ML-optimized integration grids
   S Lehtola, MJT Oliveira, MAL Marques          : LibXC Library
   Liviu Ungur et al                             : ANISO software


 Your calculation uses the libint2 library for the computation of 2-el integrals
 For citations please refer to: http://libint.valeyev.net

 Your ORCA version has been built with support for libXC version: 5.1.0
 For citations please refer to: https://tddft.org/programs/libxc/

 This ORCA versions uses:
   CBLAS   interface :  Fast vector & matrix operations
   LAPACKE interface :  Fast linear algebra routines
   SCALAPACK package :  Parallel linear algebra routines
   Shared memory     :  Shared parallel matrices
   BLAS/LAPACK       :  OpenBLAS 0.3.15  USE64BITINT DYNAMIC_ARCH NO_AFFINITY Haswell SINGLE_THREADED
        Core in use  :  Haswell
   Copyright (c) 2011-2014, The OpenBLAS Project


================================================================================

----- Orbital basis set information -----
Your calculation utilizes the basis: 6-31G
   H-He, Li-Ne : W. J. Hehre, R. Ditchfield and J.A. Pople, J. Chem. Phys. 56, 2257 (1972).
                 Note: He and Ne are unpublished basis sets taken from the Gaussian program.
                 Note: Li and B from J. D. Dill and J. A. Pople, J. Chem. Phys. 62, 2921 (1975).
   Na - Ar     : M. M. Francl, W. J. Pietro, W. J. Hehre, J. S. Binkley, M. S. Gordon, 
                 D. J. DeFrees and J. A. Pople, J. Chem. Phys. 77, 3654 (1982).
   K - Zn      : V. A. Rassolov, J. A. Pople, M. A. Ratner, and T. L. Windus, J. Chem. Phys. 109, 1223 (1998).

----- AuxJ basis set information -----
Your calculation utilizes the auxiliary basis: def2/J
   F. Weigend, Phys. Chem. Chem. Phys. 8, 1057 (2006).

================================================================================
                                        WARNINGS
                       Please study these warnings very carefully!
================================================================================

INFO   : Checking CIS options ...

INFO   : the flag for use of the SHARK integral package has been found!

================================================================================
                                       INPUT FILE
================================================================================
NAME = acrolien.993.com
|  1> ! B3LYP 6-31G
|  2> !TightSCF
|  3> %scf
|  4>  ConvForced true
|  5>  convergence tight
|  6>  MaxIter 500
|  7> end
|  8>  
|  9> %tddft 
| 10>  nroots 1
| 11> end
| 12> 
| 13> # 	1637
| 14> * xyz 0 1
| 15> 		C   -1.136716  -0.406298  -0.028259
| 16> 		O   -2.076278  -0.563775  -0.879523
| 17> 		C    0.021035   0.410412  -0.331609
| 18> 		C    1.178383   0.102835   0.246857
| 19> 		H   -1.415370  -0.875227   1.019693
| 20> 		H   -0.025806   1.340073  -0.996192
| 21> 		H    1.367219  -0.710330   0.942794
| 22> 		H    2.070183   0.683786   0.097500
| 23> *
| 24> 
| 25>                          ****END OF INPUT****
================================================================================

                       ****************************
                       * Single Point Calculation *
                       ****************************

---------------------------------
CARTESIAN COORDINATES (ANGSTROEM)
---------------------------------
  C     -1.136716   -0.406298   -0.028259
  O     -2.076278   -0.563775   -0.879523
  C      0.021035    0.410412   -0.331609
  C      1.178383    0.102835    0.246857
  H     -1.415370   -0.875227    1.019693
  H     -0.025806    1.340073   -0.996192
  H      1.367219   -0.710330    0.942794
  H      2.070183    0.683786    0.097500

----------------------------
CARTESIAN COORDINATES (A.U.)
----------------------------
  NO LB      ZA    FRAG     MASS         X           Y           Z
   0 C     6.0000    0    12.011   -2.148082   -0.767792   -0.053402
   1 O     8.0000    0    15.999   -3.923597   -1.065380   -1.662058
   2 C     6.0000    0    12.011    0.039750    0.775566   -0.626650
   3 C     6.0000    0    12.011    2.226821    0.194330    0.466492
   4 H     1.0000    0     1.008   -2.674662   -1.653939    1.926941
   5 H     1.0000    0     1.008   -0.048766    2.532371   -1.882530
   6 H     1.0000    0     1.008    2.583669   -1.342329    1.781622
   7 H     1.0000    0     1.008    3.912079    1.292168    0.184248

--------------------------------
INTERNAL COORDINATES (ANGSTROEM)
--------------------------------
 C      0   0   0     0.000000000000     0.00000000     0.00000000
 O      1   0   0     1.277586065621     0.00000000     0.00000000
 C      1   2   0     1.448938861581   121.17171858     0.00000000
 C      3   1   2     1.329917635491   118.28948073   209.46190038
 H      1   2   3     1.181416883687   111.63235727   172.59039142
 H      3   1   2     1.143736953189   123.16736483    33.05911393
 H      4   3   1     1.086841598436   127.06784944   359.84583819
 H      4   3   1     1.074764540655   122.45483744   182.25547301

---------------------------
INTERNAL COORDINATES (A.U.)
---------------------------
 C      0   0   0     0.000000000000     0.00000000     0.00000000
 O      1   0   0     2.414287776538     0.00000000     0.00000000
 C      1   2   0     2.738097633185   121.17171858     0.00000000
 C      3   1   2     2.513180111749   118.28948073   209.46190038
 H      1   2   3     2.232554360159   111.63235727   172.59039142
 H      3   1   2     2.161349610773   123.16736483    33.05911393
 H      4   3   1     2.053832971996   127.06784944   359.84583819
 H      4   3   1     2.031010640288   122.45483744   182.25547301

---------------------
BASIS SET INFORMATION
---------------------
There are 3 groups of distinct atoms

 Group   1 Type C   : 10s4p contracted to 3s2p pattern {631/31}
 Group   2 Type O   : 10s4p contracted to 3s2p pattern {631/31}
 Group   3 Type H   : 4s contracted to 2s pattern {31}

Atom   0C    basis set group =>   1
Atom   1O    basis set group =>   2
Atom   2C    basis set group =>   1
Atom   3C    basis set group =>   1
Atom   4H    basis set group =>   3
Atom   5H    basis set group =>   3
Atom   6H    basis set group =>   3
Atom   7H    basis set group =>   3
---------------------------------
AUXILIARY/J BASIS SET INFORMATION
---------------------------------
There are 3 groups of distinct atoms

 Group   1 Type C   : 12s5p4d2f1g contracted to 6s4p3d1f1g pattern {711111/2111/211/2/1}
 Group   2 Type O   : 12s5p4d2f1g contracted to 6s4p3d1f1g pattern {711111/2111/211/2/1}
 Group   3 Type H   : 5s2p1d contracted to 3s1p1d pattern {311/2/1}

Atom   0C    basis set group =>   1
Atom   1O    basis set group =>   2
Atom   2C    basis set group =>   1
Atom   3C    basis set group =>   1
Atom   4H    basis set group =>   3
Atom   5H    basis set group =>   3
Atom   6H    basis set group =>   3
Atom   7H    basis set group =>   3
------------------------------------------------------------------------------
                           ORCA GTO INTEGRAL CALCULATION
                           -- RI-GTO INTEGRALS CHOSEN --
------------------------------------------------------------------------------
------------------------------------------------------------------------------
                   ___                                                        
                  /   \      - P O W E R E D   B Y -                         
                 /     \                                                     
                 |  |  |   _    _      __       _____    __    __             
                 |  |  |  | |  | |    /  \     |  _  \  |  |  /  |          
                  \  \/   | |  | |   /    \    | | | |  |  | /  /          
                 / \  \   | |__| |  /  /\  \   | |_| |  |  |/  /          
                |  |  |   |  __  | /  /__\  \  |    /   |      \           
                |  |  |   | |  | | |   __   |  |    \   |  |\   \          
                \     /   | |  | | |  |  |  |  | |\  \  |  | \   \       
                 \___/    |_|  |_| |__|  |__|  |_| \__\ |__|  \__/        
                                                                              
                      - O R C A' S   B I G   F R I E N D -                    
                                      &                                       
                       - I N T E G R A L  F E E D E R -                       
                                                                              
 v1 FN, 2020, v2 2021                                                         
------------------------------------------------------------------------------


Reading SHARK input file acrolien.993.SHARKINP.tmp ... ok
----------------------
SHARK INTEGRAL PACKAGE
----------------------

Number of atoms                             ...      8
Number of basis functions                   ...     44
Number of shells                            ...     28
Maximum angular momentum                    ...      1
Integral batch strategy                     ... SHARK/LIBINT Hybrid
RI-J (if used) integral strategy            ... SPLIT-RIJ (Revised 2003 algorithm where possible)
Printlevel                                  ...      1
Contraction scheme used                     ... SEGMENTED contraction
Coulomb Range Separation                    ... NOT USED
Exchange Range Separation                   ... NOT USED
Finite Nucleus Model                        ... NOT USED
Auxiliary Coulomb fitting basis             ... AVAILABLE
   # of basis functions in Aux-J            ...    240
   # of shells in Aux-J                     ...     80
   Maximum angular momentum in Aux-J        ...      4
Auxiliary J/K fitting basis                 ... NOT available
Auxiliary Correlation fitting basis         ... NOT available
Auxiliary 'external' fitting basis          ... NOT available
Integral threshold                          ...     2.500000e-11
Primitive cut-off                           ...     2.500000e-12
Primitive pair pre-selection threshold      ...     2.500000e-12

Calculating pre-screening integrals         ... done (  0.0 sec) Dimension = 28
Organizing shell pair data                  ... done (  0.0 sec)
Shell pair information
Total number of shell pairs                 ...       406
Shell pairs after pre-screening             ...       398
Total number of primitive shell pairs       ...      2724
Primitive shell pairs kept                  ...      1983
          la=0 lb=0:    203 shell pairs
          la=1 lb=0:    159 shell pairs
          la=1 lb=1:     36 shell pairs

Calculating one electron integrals          ... done (  0.0 sec)
Calculating RI/J V-Matrix + Cholesky decomp.... done (  0.2 sec)
Calculating Nuclear repulsion               ... done (  0.0 sec) ENN=    101.818227809902 Eh

SHARK setup successfully completed in   0.7 seconds

Maximum memory used throughout the entire GTOINT-calculation: 8.3 MB
-------------------------------------------------------------------------------
                                 ORCA SCF
-------------------------------------------------------------------------------

------------
SCF SETTINGS
------------
Hamiltonian:
 Density Functional     Method          .... DFT(GTOs)
 Exchange Functional    Exchange        .... B88
   X-Alpha parameter    XAlpha          ....  0.666667
   Becke's b parameter  XBeta           ....  0.004200
 Correlation Functional Correlation     .... LYP
 LDA part of GGA corr.  LDAOpt          .... VWN-5
 Gradients option       PostSCFGGA      .... off
 Hybrid DFT is turned on
   Fraction HF Exchange ScalHFX         ....  0.200000
   Scaling of DF-GGA-X  ScalDFX         ....  0.720000
   Scaling of DF-GGA-C  ScalDFC         ....  0.810000
   Scaling of DF-LDA-C  ScalLDAC        ....  1.000000
   Perturbative correction              ....  0.000000
   Density functional embedding theory  .... OFF
   NL short-range parameter             ....  4.800000
 RI-approximation to the Coulomb term is turned on
   Number of AuxJ basis functions       .... 240
   RIJ-COSX (HFX calculated with COS-X)).... on


General Settings:
 Integral files         IntName         .... acrolien.993
 Hartree-Fock type      HFTyp           .... RHF
 Total Charge           Charge          ....    0
 Multiplicity           Mult            ....    1
 Number of Electrons    NEL             ....   30
 Basis Dimension        Dim             ....   44
 Nuclear Repulsion      ENuc            ....    101.8182278099 Eh

Convergence Acceleration:
 DIIS                   CNVDIIS         .... on
   Start iteration      DIISMaxIt       ....    12
   Startup error        DIISStart       ....  0.200000
   # of expansion vecs  DIISMaxEq       ....     5
   Bias factor          DIISBfac        ....   1.050
   Max. coefficient     DIISMaxC        ....  10.000
 Trust-Rad. Augm. Hess. CNVTRAH         .... auto
   Auto Start mean grad. ratio tolernc. ....  1.125000
   Auto Start start iteration           ....    20
   Auto Start num. interpolation iter.  ....    10
   Max. Number of Micro iterations      ....    16
   Max. Number of Macro iterations      .... Maxiter - #DIIS iter
   Number of Davidson start vectors     ....     2
   Converg. threshold I  (grad. norm)   ....   1.000e-05
   Converg. threshold II (energy diff.) ....   1.000e-08
   Grad. Scal. Fac. for Micro threshold ....   0.100
   Minimum threshold for Micro iter.    ....   0.010
   NR start threshold (gradient norm)   ....   0.001
   Initial trust radius                 ....   0.400
   Minimum AH scaling param. (alpha)    ....   1.000
   Maximum AH scaling param. (alpha)    .... 1000.000
   Orbital update algorithm             .... Taylor
   White noise on init. David. guess    .... on
   Maximum white noise                  ....   0.010
   Quad. conv. algorithm                .... NR
 SOSCF                  CNVSOSCF        .... on
   Start iteration      SOSCFMaxIt      ....   150
   Startup grad/error   SOSCFStart      ....  0.003300
 Level Shifting         CNVShift        .... on
   Level shift para.    LevelShift      ....    0.2500
   Turn off err/grad.   ShiftErr        ....    0.0010
 Zerner damping         CNVZerner       .... off
 Static damping         CNVDamp         .... on
   Fraction old density DampFac         ....    0.7000
   Max. Damping (<1)    DampMax         ....    0.9800
   Min. Damping (>=0)   DampMin         ....    0.0000
   Turn off err/grad.   DampErr         ....    0.1000
 Fernandez-Rico         CNVRico         .... off

SCF Procedure:
 Maximum # iterations   MaxIter         ....   500
 SCF integral mode      SCFMode         .... Direct
   Integral package                     .... SHARK and LIBINT hybrid scheme
 Reset frequency        DirectResetFreq ....    20
 Integral Threshold     Thresh          ....  2.500e-11 Eh
 Primitive CutOff       TCut            ....  2.500e-12 Eh

Convergence Tolerance:
 Convergence Check Mode ConvCheckMode   .... Total+1el-Energy
 Convergence forced     ConvForced      .... 1
 Energy Change          TolE            ....  1.000e-08 Eh
 1-El. energy change                    ....  1.000e-05 Eh
 Orbital Gradient       TolG            ....  1.000e-05
 Orbital Rotation angle TolX            ....  1.000e-05
 DIIS Error             TolErr          ....  5.000e-07


Diagonalization of the overlap matrix:
Smallest eigenvalue                        ... 6.029e-03
Time for diagonalization                   ...    0.056 sec
Threshold for overlap eigenvalues          ... 1.000e-08
Number of eigenvalues below threshold      ... 0
Time for construction of square roots      ...    0.072 sec
Total time needed                          ...    0.128 sec

Time for model grid setup =    0.190 sec

------------------------------
INITIAL GUESS: MODEL POTENTIAL
------------------------------
Loading Hartree-Fock densities                     ... done
Calculating cut-offs                               ... done
Initializing the effective Hamiltonian             ... done
Setting up the integral package (SHARK)            ... done
Starting the Coulomb interaction                   ... done (   0.6 sec)
Reading the grid                                   ... done
Mapping shells                                     ... done
Starting the XC term evaluation                    ... done (   0.0 sec)
  promolecular density results
     # of electrons  =     29.998138474
     EX              =    -24.709148297
     EC              =     -0.993191618
     EX+EC           =    -25.702339915
Transforming the Hamiltonian                       ... done (   0.0 sec)
Diagonalizing the Hamiltonian                      ... done (   0.0 sec)
Back transforming the eigenvectors                 ... done (   0.0 sec)
Now organizing SCF variables                       ... done
                      ------------------
                      INITIAL GUESS DONE (   0.9 sec)
                      ------------------
-------------------
DFT GRID GENERATION
-------------------

General Integration Accuracy     IntAcc      ... 4.388
Radial Grid Type                 RadialGrid  ... OptM3 with GC (2021)
Angular Grid (max. ang.)         AngularGrid ... 4 (Lebedev-302)
Angular grid pruning method      GridPruning ... 4 (adaptive)
Weight generation scheme         WeightScheme... Becke
Basis function cutoff            BFCut       ... 1.0000e-11
Integration weight cutoff        WCut        ... 1.0000e-14
Angular grids for H and He will be reduced by one unit
Partially contracted basis set               ... off
Rotationally invariant grid construction     ... off

Total number of grid points                  ...    37438
Total number of batches                      ...      590
Average number of points per batch           ...       63
Average number of grid points per atom       ...     4680
Time for grid setup =    0.644 sec

--------------------
COSX GRID GENERATION
--------------------

GRIDX 1
-------
General Integration Accuracy     IntAcc      ... 3.816
Radial Grid Type                 RadialGrid  ... OptM3 with GC (2021)
Angular Grid (max. ang.)         AngularGrid ... 1 (Lebedev-50)
Angular grid pruning method      GridPruning ... 4 (adaptive)
Weight generation scheme         WeightScheme... Becke
Basis function cutoff            BFCut       ... 1.0000e-11
Integration weight cutoff        WCut        ... 1.0000e-14
Angular grids for H and He will be reduced by one unit
Partially contracted basis set               ... on
Rotationally invariant grid construction     ... off

Total number of grid points                  ...     4799
Total number of batches                      ...       79
Average number of points per batch           ...       60
Average number of grid points per atom       ...      600
UseSFitting                                  ... on

GRIDX 2
-------
General Integration Accuracy     IntAcc      ... 4.020
Radial Grid Type                 RadialGrid  ... OptM3 with GC (2021)
Angular Grid (max. ang.)         AngularGrid ... 2 (Lebedev-110)
Angular grid pruning method      GridPruning ... 4 (adaptive)
Weight generation scheme         WeightScheme... Becke
Basis function cutoff            BFCut       ... 1.0000e-11
Integration weight cutoff        WCut        ... 1.0000e-14
Angular grids for H and He will be reduced by one unit
Partially contracted basis set               ... on
Rotationally invariant grid construction     ... off

Total number of grid points                  ...    10549
Total number of batches                      ...      168
Average number of points per batch           ...       62
Average number of grid points per atom       ...     1319
UseSFitting                                  ... on

GRIDX 3
-------
General Integration Accuracy     IntAcc      ... 4.338
Radial Grid Type                 RadialGrid  ... OptM3 with GC (2021)
Angular Grid (max. ang.)         AngularGrid ... 3 (Lebedev-194)
Angular grid pruning method      GridPruning ... 4 (adaptive)
Weight generation scheme         WeightScheme... Becke
Basis function cutoff            BFCut       ... 1.0000e-11
Integration weight cutoff        WCut        ... 1.0000e-14
Angular grids for H and He will be reduced by one unit
Partially contracted basis set               ... on
Rotationally invariant grid construction     ... off

Total number of grid points                  ...    23330
Total number of batches                      ...      369
Average number of points per batch           ...       63
Average number of grid points per atom       ...     2916
UseSFitting                                  ... on

Time for X-Grid setup             =    0.892 sec

--------------
SCF ITERATIONS
--------------
ITER       Energy         Delta-E        Max-DP      RMS-DP      [F,P]     Damp
               ***  Starting incremental Fock matrix formation  ***
  0   -191.5846778082   0.000000000000 0.13783284  0.00913686  0.2617976 0.7000
  1   -191.6556300188  -0.070952210636 0.06176051  0.00498828  0.0858478 0.7000
                               ***Turning on DIIS***
  2   -191.6765142053  -0.020884186425 0.05485860  0.00577754  0.0339212 0.0000
  3   -191.7194558226  -0.042941617369 0.05049942  0.00381271  0.0361286 0.0000
  4   -191.7245921679  -0.005136345291 0.01311604  0.00123889  0.0255248 0.0000
  5   -191.7261459090  -0.001553741092 0.00421926  0.00035913  0.0048793 0.0000
                      *** Initiating the SOSCF procedure ***
                           *** Shutting down DIIS ***
                      *** Re-Reading the Fockian *** 
                      *** Removing any level shift *** 
ITER      Energy       Delta-E        Grad      Rot      Max-DP    RMS-DP
  6   -191.72620193  -0.0000560183  0.000256  0.000256  0.001649  0.000156
               *** Restarting incremental Fock matrix formation ***
  7   -191.72621245  -0.0000105272  0.000245  0.000813  0.002297  0.000137
  8   -191.72620925   0.0000032092  0.000677  0.000692  0.001248  0.000081
  9   -191.72621341  -0.0000041600  0.000087  0.000187  0.000356  0.000029
 10   -191.72621326   0.0000001480  0.000113  0.000147  0.000249  0.000017
 11   -191.72621355  -0.0000002902  0.000023  0.000093  0.000079  0.000007
 12   -191.72621354   0.0000000104  0.000035  0.000057  0.000050  0.000004
                  ***Gradient check signals convergence***
              ***Rediagonalizing the Fockian in SOSCF/NRSCF***

               *****************************************************
               *                     SUCCESS                       *
               *           SCF CONVERGED AFTER  13 CYCLES          *
               *****************************************************

Old exchange energy                            =     -5.004885321 Eh
New exchange energy                            =     -5.004903484 Eh
Exchange energy change after final integration =     -0.000018163 Eh
Total energy after final integration           =   -191.726231716 Eh
Final COS-X integration done in                =     0.804 sec

----------------
TOTAL SCF ENERGY
----------------

Total Energy       :         -191.72623172 Eh           -5217.13600 eV

Components:
Nuclear Repulsion  :          101.81822781 Eh            2770.61483 eV
Electronic Energy  :         -293.54445953 Eh           -7987.75083 eV
One Electron Energy:         -460.74533220 Eh          -12537.51788 eV
Two Electron Energy:          167.20087268 Eh            4549.76705 eV
Max COSX asymmetry :            0.00000130 Eh               0.00004 eV

Virial components:
Potential Energy   :         -382.32262523 Eh          -10403.52754 eV
Kinetic Energy     :          190.59639351 Eh            5186.39154 eV
Virial Ratio       :            2.00592791


DFT components:
N(Alpha)           :       14.999995497746 electrons
N(Beta)            :       14.999995497746 electrons
N(Total)           :       29.999990995492 electrons
E(X)               :      -19.933033164186 Eh       
E(C)               :       -1.180065010960 Eh       
E(XC)              :      -21.113098175146 Eh       
DFET-embed. en.    :        0.000000000000 Eh       

---------------
SCF CONVERGENCE
---------------

  Last Energy change         ...   -1.5725e-08  Tolerance :   1.0000e-08
  Last MAX-Density change    ...    2.2204e-15  Tolerance :   1.0000e-07
  Last RMS-Density change    ...    1.1911e-16  Tolerance :   5.0000e-09
  Last Orbital Gradient      ...    3.6337e-07  Tolerance :   1.0000e-05
  Last Orbital Rotation      ...    9.1969e-07  Tolerance :   1.0000e-05

             **** THE GBW FILE WAS UPDATED (acrolien.993.gbw) ****
             **** DENSITY acrolien.993.scfp WAS UPDATED ****
             **** ENERGY FILE WAS UPDATED (acrolien.993.en.tmp) ****
             **** THE GBW FILE WAS UPDATED (acrolien.993.gbw) ****
             **** DENSITY acrolien.993.scfp WAS UPDATED ****
----------------
ORBITAL ENERGIES
----------------

  NO   OCC          E(Eh)            E(eV) 
   0   2.0000     -19.143852      -520.9307 
   1   2.0000     -10.284897      -279.8663 
   2   2.0000     -10.217887      -278.0428 
   3   2.0000     -10.211173      -277.8601 
   4   2.0000      -1.028860       -27.9967 
   5   2.0000      -0.811998       -22.0956 
   6   2.0000      -0.651858       -17.7380 
   7   2.0000      -0.565691       -15.3932 
   8   2.0000      -0.488405       -13.2902 
   9   2.0000      -0.475319       -12.9341 
  10   2.0000      -0.412976       -11.2377 
  11   2.0000      -0.389444       -10.5973 
  12   2.0000      -0.369890       -10.0652 
  13   2.0000      -0.291741        -7.9387 
  14   2.0000      -0.250621        -6.8198 
  15   0.0000      -0.068899        -1.8748 
  16   0.0000       0.023025         0.6265 
  17   0.0000       0.101427         2.7600 
  18   0.0000       0.118187         3.2160 
  19   0.0000       0.127477         3.4688 
  20   0.0000       0.185336         5.0433 
  21   0.0000       0.260700         7.0940 
  22   0.0000       0.306371         8.3368 
  23   0.0000       0.343032         9.3344 
  24   0.0000       0.511826        13.9275 
  25   0.0000       0.541548        14.7363 
  26   0.0000       0.574982        15.6460 
  27   0.0000       0.588778        16.0215 
  28   0.0000       0.628740        17.1089 
  29   0.0000       0.639213        17.3939 
  30   0.0000       0.676047        18.3962 
  31   0.0000       0.705405        19.1950 
  32   0.0000       0.797627        21.7045 
  33   0.0000       0.833388        22.6776 
  34   0.0000       0.866379        23.5754 
  35   0.0000       0.917613        24.9695 
  36   0.0000       0.947662        25.7872 
  37   0.0000       0.974086        26.5062 
  38   0.0000       1.008430        27.4408 
  39   0.0000       1.025149        27.8957 
  40   0.0000       1.130232        30.7552 
  41   0.0000       1.172372        31.9019 
  42   0.0000       1.235140        33.6099 
  43   0.0000       1.685236        45.8576 

                    ********************************
                    * MULLIKEN POPULATION ANALYSIS *
                    ********************************

-----------------------
MULLIKEN ATOMIC CHARGES
-----------------------
   0 C :    0.160941
   1 O :   -0.403281
   2 C :   -0.097174
   3 C :   -0.269805
   4 H :    0.130880
   5 H :    0.176797
   6 H :    0.154468
   7 H :    0.147173
Sum of atomic charges:   -0.0000000

--------------------------------
MULLIKEN REDUCED ORBITAL CHARGES
--------------------------------
  0 C s       :     3.216045  s :     3.216045
      pz      :     0.914903  p :     2.623013
      px      :     0.839412
      py      :     0.868698
  1 O s       :     3.971226  s :     3.971226
      pz      :     1.539050  p :     4.432056
      px      :     1.442276
      py      :     1.450730
  2 C s       :     3.214651  s :     3.214651
      pz      :     0.978877  p :     2.882523
      px      :     0.919572
      py      :     0.984075
  3 C s       :     3.275316  s :     3.275316
      pz      :     0.963955  p :     2.994489
      px      :     1.018722
      py      :     1.011812
  4 H s       :     0.869120  s :     0.869120
  5 H s       :     0.823203  s :     0.823203
  6 H s       :     0.845532  s :     0.845532
  7 H s       :     0.852827  s :     0.852827


                     *******************************
                     * LOEWDIN POPULATION ANALYSIS *
                     *******************************

----------------------
LOEWDIN ATOMIC CHARGES
----------------------
   0 C :    0.110591
   1 O :   -0.270383
   2 C :   -0.144454
   3 C :   -0.184341
   4 H :    0.098320
   5 H :    0.145845
   6 H :    0.123167
   7 H :    0.121255

-------------------------------
LOEWDIN REDUCED ORBITAL CHARGES
-------------------------------
  0 C s       :     3.002871  s :     3.002871
      pz      :     1.024562  p :     2.886538
      px      :     0.962701
      py      :     0.899275
  1 O s       :     3.677407  s :     3.677407
      pz      :     1.619706  p :     4.592976
      px      :     1.508780
      py      :     1.464490
  2 C s       :     2.973630  s :     2.973630
      pz      :     1.036386  p :     3.170825
      px      :     1.078034
      py      :     1.056404
  3 C s       :     3.002271  s :     3.002271
      pz      :     1.011569  p :     3.182070
      px      :     1.108792
      py      :     1.061708
  4 H s       :     0.901680  s :     0.901680
  5 H s       :     0.854155  s :     0.854155
  6 H s       :     0.876833  s :     0.876833
  7 H s       :     0.878745  s :     0.878745


                      *****************************
                      * MAYER POPULATION ANALYSIS *
                      *****************************

  NA   - Mulliken gross atomic population
  ZA   - Total nuclear charge
  QA   - Mulliken gross atomic charge
  VA   - Mayer's total valence
  BVA  - Mayer's bonded valence
  FA   - Mayer's free valence

  ATOM       NA         ZA         QA         VA         BVA        FA
  0 C      5.8391     6.0000     0.1609     3.7417     3.7417    -0.0000
  1 O      8.4033     8.0000    -0.4033     1.9486     1.9486    -0.0000
  2 C      6.0972     6.0000    -0.0972     3.7633     3.7633    -0.0000
  3 C      6.2698     6.0000    -0.2698     3.8391     3.8391    -0.0000
  4 H      0.8691     1.0000     0.1309     0.9354     0.9354    -0.0000
  5 H      0.8232     1.0000     0.1768     0.9385     0.9385     0.0000
  6 H      0.8455     1.0000     0.1545     0.9378     0.9378    -0.0000
  7 H      0.8528     1.0000     0.1472     0.9399     0.9399    -0.0000

  Mayer bond orders larger than 0.100000
B(  0-C ,  1-O ) :   1.8020 B(  0-C ,  2-C ) :   1.0094 B(  0-C ,  4-H ) :   0.8902 
B(  2-C ,  3-C ) :   1.8418 B(  2-C ,  5-H ) :   0.9277 B(  3-C ,  6-H ) :   0.9446 
B(  3-C ,  7-H ) :   0.9404 

-------
TIMINGS
-------

Total SCF time: 0 days 0 hours 0 min 53 sec 

Total time                  ....      53.472 sec
Sum of individual times     ....      39.219 sec  ( 73.3%)

Fock matrix formation       ....      34.129 sec  ( 63.8%)
  Split-RI-J                ....       0.611 sec  (  1.8% of F)
  Chain of spheres X        ....       4.594 sec  ( 13.5% of F)
  XC integration            ....      10.472 sec  ( 30.7% of F)
    Basis function eval.    ....       1.005 sec  (  9.6% of XC)
    Density eval.           ....       0.421 sec  (  4.0% of XC)
    XC-Functional eval.     ....       0.588 sec  (  5.6% of XC)
    XC-Potential eval.      ....       0.244 sec  (  2.3% of XC)
Diagonalization             ....       0.003 sec  (  0.0%)
Density matrix formation    ....       0.000 sec  (  0.0%)
Population analysis         ....       2.694 sec  (  5.0%)
Initial guess               ....       0.662 sec  (  1.2%)
Orbital Transformation      ....       0.000 sec  (  0.0%)
Orbital Orthonormalization  ....       0.000 sec  (  0.0%)
DIIS solution               ....       0.002 sec  (  0.0%)
SOSCF solution              ....       0.002 sec  (  0.0%)
Grid generation             ....       1.726 sec  (  3.2%)

Maximum memory used throughout the entire SCF-calculation: 46.7 MB
------------------------------------------------------------------------------
                        ORCA TD-DFT/TDA CALCULATION
------------------------------------------------------------------------------

Input orbitals are from        ... acrolien.993.gbw
CI-vector output               ... acrolien.993.cis
Tamm-Dancoff approximation     ... operative
CIS-Integral strategy          ... AO-integrals
Integral handling              ... AO integral Direct
Max. core memory used          ... 512 MB
Reference state                ... RHF
Generation of triplets         ... off
Follow IRoot                   ... off
Number of operators            ... 1
Orbital ranges used for CIS calculation:
 Operator 0:  Orbitals   4... 14  to  15... 43
XAS localization array:
 Operator 0:  Orbitals  -1... -1

-------------------
XC-INTEGRATION GRID
-------------------

General Integration Accuracy     IntAcc      ... 3.467
Radial Grid Type                 RadialGrid  ... OptM3 with GC (2021)
Angular Grid (max. ang.)         AngularGrid ... 1 (Lebedev-50)
Angular grid pruning method      GridPruning ... 4 (adaptive)
Weight generation scheme         WeightScheme... Becke
Basis function cutoff            BFCut       ... 1.0000e-11
Integration weight cutoff        WCut        ... 1.0000e-14
Angular grids for H and He will be reduced by one unit
Partially contracted basis set               ... off
Rotationally invariant grid construction     ... off

Total number of grid points                  ...     5499
Total number of batches                      ...       91
Average number of points per batch           ...       60
Average number of grid points per atom       ...      687

---------------------
COSX-INTEGRATION GRID
---------------------

General Integration Accuracy     IntAcc      ... 3.067
Radial Grid Type                 RadialGrid  ... OptM3 with GC (2021)
Angular Grid (max. ang.)         AngularGrid ... 1 (Lebedev-50)
Angular grid pruning method      GridPruning ... 4 (adaptive)
Weight generation scheme         WeightScheme... Becke
Basis function cutoff            BFCut       ... 1.0000e-11
Integration weight cutoff        WCut        ... 1.0000e-14
Angular grids for H and He will be reduced by one unit
Partially contracted basis set               ... on
Rotationally invariant grid construction     ... off

Total number of grid points                  ...     2507
Total number of batches                      ...       45
Average number of points per batch           ...       55
Average number of grid points per atom       ...      313

---------------
TD-DFT XC SETUP
---------------

DFT calculation                         ... on
Name of the grid file                   ... acrolien.993.grid_cis.tmp
Exchange functional (TD-DFT)            ... B88
   X-Alpha parameter    XAlpha (TD-DFT) ...  0.666667
   Becke's b parameter  XBeta (TD-DFT)  ...  0.004200
Correlation functional (TD-DFT)         ... LYP
 LDA part of GGA corr.  LDAOpt (TD-DFT) ... VWN-5
Hybrid DFT                              ... on
   Exchange mixing (TD-DFT)             ...  0.200
   GGA exch. scaling (TD-DFT)           ...  0.720
   GGA corr. scaling (TD-DFT)           ...  0.810

Building densities             ... done
Calculating rho(r) on the grid ... done
Building xc-kernel on the grid ... done
                    *** TD-DFT CALCULATION INITIALIZED ***

------------------------
DAVIDSON-DIAGONALIZATION
------------------------

Dimension of the eigenvalue problem            ...    319
Number of roots to be determined               ...      1
Maximum size of the expansion space            ...     10
Maximum number of iterations                   ...    100
Convergence tolerance for the residual         ...    2.500e-07
Convergence tolerance for the energies         ...    2.500e-07
Orthogonality tolerance                        ...    1.000e-14
Level Shift                                    ...    0.000e+00
Constructing the preconditioner                ... o.k.
Building the initial guess                     ... o.k.
Number of trial vectors determined             ...     10


                       ****Iteration    0****

   Memory handling for direct AO based CIS:
   Memory per vector needed      ...     1 MB
   Memory needed                 ...     0 MB
   Memory available              ...   512 MB
   Number of vectors per batch   ...   512
   Number of batches             ...     1
   Time for densities:            0.001
   Time for RI-J (Direct):        0.043
   Time for K (COSX):             0.115
   Time for XC-Integration:       0.038
   Time for Sigma-Completion:     0.000
   Size of expansion space: 3
   Lowest Energy          :     0.120442312575
   Maximum Energy change  :     0.120442312575 (vector 0)
   Maximum residual norm  :     0.000846014775

                       ****Iteration    1****
   Time for densities:            0.000
   Time for RI-J (Direct):        0.033
   Time for K (COSX):             0.516
   Time for XC-Integration:       0.022
   Time for Sigma-Completion:     0.000
   Size of expansion space: 4
   Lowest Energy          :     0.119213763935
   Maximum Energy change  :     0.001228548639 (vector 0)
   Maximum residual norm  :     0.000256293991

                       ****Iteration    2****
   Time for densities:            0.000
   Time for RI-J (Direct):        0.033
   Time for K (COSX):             0.107
   Time for XC-Integration:       0.022
   Time for Sigma-Completion:     0.000
   Size of expansion space: 5
   Lowest Energy          :     0.118908064054
   Maximum Energy change  :     0.000305699881 (vector 0)
   Maximum residual norm  :     0.000004915944

                       ****Iteration    3****
   Time for densities:            0.000
   Time for RI-J (Direct):        0.033
   Time for K (COSX):             0.120
   Time for XC-Integration:       0.022
   Time for Sigma-Completion:     0.000
   Size of expansion space: 6
   Lowest Energy          :     0.118901409818
   Maximum Energy change  :     0.000006654237 (vector 0)
   Maximum residual norm  :     0.000000399369

                       ****Iteration    4****
   Time for densities:            0.000
   Time for RI-J (Direct):        0.033
   Time for K (COSX):             0.210
   Time for XC-Integration:       0.022
   Time for Sigma-Completion:     0.000
   Size of expansion space: 7
   Lowest Energy          :     0.118900952910
   Maximum Energy change  :     0.000000456908 (vector 0)
   Maximum residual norm  :     0.000000013021

      *** CONVERGENCE OF RESIDUAL NORM REACHED ***

Storing the converged CI vectors               ... acrolien.993.cis1

                 *** DAVIDSON DONE ***

Total time for solving the CIS problem:     1.963sec

------------------------------------
TD-DFT/TDA EXCITED STATES (SINGLETS)
------------------------------------

the weight of the individual excitations are printed if larger than 1.0e-02

STATE  1:  E=   0.118901 au      3.235 eV    26095.7 cm**-1 <S**2> =   0.000000
    14a ->  15a  :     0.973950 (c= -0.98688926)
    14a ->  16a  :     0.019242 (c=  0.13871612)


-----------------------------
TD-DFT/TDA-EXCITATION SPECTRA
-----------------------------

Center of mass = ( -1.0265, -0.2458, -0.4839)
Calculating the Dipole integrals                  ... done
Transforming integrals                            ... done
Calculating the Linear Momentum integrals         ... done
Transforming integrals                            ... done
Calculating angular momentum integrals            ... done
Transforming integrals                            ... done

-----------------------------------------------------------------------------
         ABSORPTION SPECTRUM VIA TRANSITION ELECTRIC DIPOLE MOMENTS
-----------------------------------------------------------------------------
State   Energy    Wavelength  fosc         T2        TX        TY        TZ  
        (cm-1)      (nm)                 (au**2)    (au)      (au)      (au) 
-----------------------------------------------------------------------------
   1   26095.7    383.2   0.000448578   0.00566   0.07510   0.00232  -0.00370

-----------------------------------------------------------------------------
         ABSORPTION SPECTRUM VIA TRANSITION VELOCITY DIPOLE MOMENTS
-----------------------------------------------------------------------------
State   Energy    Wavelength   fosc        P2         PX        PY        PZ  
        (cm-1)      (nm)                 (au**2)     (au)      (au)      (au) 
-----------------------------------------------------------------------------
   1   26095.7    383.2   0.000882858   0.00016   0.01036  -0.00070   0.00705

-------------------------------------------------------------------
                             CD SPECTRUM
-------------------------------------------------------------------
State  Energy     Wavelength     R         MX        MY        MZ   
       (cm-1)       (nm)     (1e40*cgs)   (au)      (au)      (au)  
-------------------------------------------------------------------
   1   26095.7    383.2     11.97392   0.34839   0.10322   0.27156

-------------------------------------------------------------------
         CD SPECTRUM VIA TRANSITION VELOCITY DIPOLE MOMENTS        
-------------------------------------------------------------------
State  Energy     Wavelength     R         MX        MY        MZ   
       (cm-1)       (nm)     (1e40*cgs)   (au)      (au)      (au)  
-------------------------------------------------------------------
   1   26095.7    383.2     21.61135   0.34839   0.10322   0.27156

Total run time:        3.547 sec

           *** ORCA-CIS/TD-DFT FINISHED WITHOUT ERROR ***

Maximum memory used throughout the entire CIS-calculation: 42.9 MB

-----------------------
CIS/TD-DFT TOTAL ENERGY
-----------------------

    E(SCF)  =   -191.726231716 Eh
    DE(CIS) =      0.118900953 Eh (Root  1)
    ----------------------------- ---------
    E(tot)  =   -191.607330763 Eh


-------------------------   --------------------
FINAL SINGLE POINT ENERGY      -191.607330762685
-------------------------   --------------------


                            ***************************************
                            *     ORCA property calculations      *
                            ***************************************

                                    ---------------------
                                    Active property flags
                                    ---------------------
   (+) Dipole Moment


------------------------------------------------------------------------------
                       ORCA ELECTRIC PROPERTIES CALCULATION
------------------------------------------------------------------------------

Dipole Moment Calculation                       ... on
Quadrupole Moment Calculation                   ... off
Polarizability Calculation                      ... off
GBWName                                         ... acrolien.993.gbw
Electron density                                ... acrolien.993.scfp
The origin for moment calculation is the CENTER OF MASS  = (-1.026469, -0.245838 -0.483911)

-------------
DIPOLE MOMENT
-------------
                                X             Y             Z
Electronic contribution:     -2.74034      -0.55918      -1.24119
Nuclear contribution   :      3.88855       0.89299       1.94978
                        -----------------------------------------
Total Dipole Moment    :      1.14821       0.33381       0.70859
                        -----------------------------------------
Magnitude (a.u.)       :      1.38993
Magnitude (Debye)      :      3.53292



--------------------
Rotational spectrum 
--------------------
 
Rotational constants in cm-1:     1.354308     0.156593     0.144443 
Rotational constants in MHz : 40601.128615  4694.541454  4330.288924 

 Dipole components along the rotational axes: 
x,y,z [a.u.] :    -1.338865    -0.257552    -0.270218 
x,y,z [Debye]:    -3.403123    -0.654645    -0.686839 

 

Timings for individual modules:

Sum of individual times         ...       60.598 sec (=   1.010 min)
GTO integral calculation        ...        1.137 sec (=   0.019 min)   1.9 %
SCF iterations                  ...       55.538 sec (=   0.926 min)  91.6 %
CIS module                      ...        3.924 sec (=   0.065 min)   6.5 %
                             ****ORCA TERMINATED NORMALLY****
TOTAL RUN TIME: 0 days 0 hours 1 minutes 1 seconds 133 msec
