
                                 *****************
                                 * O   R   C   A *
                                 *****************

                                            #,                                       
                                            ###                                      
                                            ####                                     
                                            #####                                    
                                            ######                                   
                                           ########,                                 
                                     ,,################,,,,,                         
                               ,,#################################,,                 
                          ,,##########################################,,             
                       ,#########################################, ''#####,          
                    ,#############################################,,   '####,        
                  ,##################################################,,,,####,       
                ,###########''''           ''''###############################       
              ,#####''   ,,,,##########,,,,          '''####'''          '####       
            ,##' ,,,,###########################,,,                        '##       
           ' ,,###''''                  '''############,,,                           
         ,,##''                                '''############,,,,        ,,,,,,###''
      ,#''                                            '''#######################'''  
     '                                                          ''''####''''         
             ,#######,   #######,   ,#######,      ##                                
            ,#'     '#,  ##    ##  ,#'     '#,    #''#        ######   ,####,        
            ##       ##  ##   ,#'  ##            #'  '#       #        #'  '#        
            ##       ##  #######   ##           ,######,      #####,   #    #        
            '#,     ,#'  ##    ##  '#,     ,#' ,#      #,         ##   #,  ,#        
             '#######'   ##     ##  '#######'  #'      '#     #####' # '####'        



                  #######################################################
                  #                        -***-                        #
                  #          Department of theory and spectroscopy      #
                  #    Directorship and core code : Frank Neese         #
                  #        Max Planck Institute fuer Kohlenforschung    #
                  #                Kaiser Wilhelm Platz 1               #
                  #                 D-45470 Muelheim/Ruhr               #
                  #                      Germany                        #
                  #                                                     #
                  #                  All rights reserved                #
                  #                        -***-                        #
                  #######################################################


                         Program Version 5.0.3 -  RELEASE  -


 With contributions from (in alphabetic order):
   Daniel Aravena         : Magnetic Suceptibility
   Michael Atanasov       : Ab Initio Ligand Field Theory (pilot matlab implementation)
   Alexander A. Auer      : GIAO ZORA, VPT2 properties, NMR spectrum
   Ute Becker             : Parallelization
   Giovanni Bistoni       : ED, misc. LED, open-shell LED, HFLD
   Martin Brehm           : Molecular dynamics
   Dmytro Bykov           : SCF Hessian
   Vijay G. Chilkuri      : MRCI spin determinant printing, contributions to CSF-ICE
   Dipayan Datta          : RHF DLPNO-CCSD density
   Achintya Kumar Dutta   : EOM-CC, STEOM-CC
   Dmitry Ganyushin       : Spin-Orbit,Spin-Spin,Magnetic field MRCI
   Miquel Garcia          : C-PCM and meta-GGA Hessian, CC/C-PCM, Gaussian charge scheme
   Yang Guo               : DLPNO-NEVPT2, F12-NEVPT2, CIM, IAO-localization
   Andreas Hansen         : Spin unrestricted coupled pair/coupled cluster methods
   Benjamin Helmich-Paris : MC-RPA, TRAH-SCF, COSX integrals
   Lee Huntington         : MR-EOM, pCC
   Robert Izsak           : Overlap fitted RIJCOSX, COSX-SCS-MP3, EOM
   Marcus Kettner         : VPT2
   Christian Kollmar      : KDIIS, OOCD, Brueckner-CCSD(T), CCSD density, CASPT2, CASPT2-K
   Simone Kossmann        : Meta GGA functionals, TD-DFT gradient, OOMP2, MP2 Hessian
   Martin Krupicka        : Initial AUTO-CI
   Lucas Lang             : DCDCAS
   Marvin Lechner         : AUTO-CI (C++ implementation), FIC-MRCC
   Dagmar Lenk            : GEPOL surface, SMD
   Dimitrios Liakos       : Extrapolation schemes; Compound Job, initial MDCI parallelization
   Dimitrios Manganas     : Further ROCIS development; embedding schemes
   Dimitrios Pantazis     : SARC Basis sets
   Anastasios Papadopoulos: AUTO-CI, single reference methods and gradients
   Taras Petrenko         : DFT Hessian,TD-DFT gradient, ASA, ECA, R-Raman, ABS, FL, XAS/XES, NRVS
   Peter Pinski           : DLPNO-MP2, DLPNO-MP2 Gradient
   Christoph Reimann      : Effective Core Potentials
   Marius Retegan         : Local ZFS, SOC
   Christoph Riplinger    : Optimizer, TS searches, QM/MM, DLPNO-CCSD(T), (RO)-DLPNO pert. Triples
   Tobias Risthaus        : Range-separated hybrids, TD-DFT gradient, RPA, STAB
   Michael Roemelt        : Original ROCIS implementation
   Masaaki Saitow         : Open-shell DLPNO-CCSD energy and density
   Barbara Sandhoefer     : DKH picture change effects
   Avijit Sen             : IP-ROCIS
   Kantharuban Sivalingam : CASSCF convergence, NEVPT2, FIC-MRCI
   Bernardo de Souza      : ESD, SOC TD-DFT
   Georgi Stoychev        : AutoAux, RI-MP2 NMR, DLPNO-MP2 response
   Willem Van den Heuvel  : Paramagnetic NMR
   Boris Wezisla          : Elementary symmetry handling
   Frank Wennmohs         : Technical directorship


 We gratefully acknowledge several colleagues who have allowed us to
 interface, adapt or use parts of their codes:
   Stefan Grimme, W. Hujo, H. Kruse, P. Pracht,  : VdW corrections, initial TS optimization,
                  C. Bannwarth, S. Ehlert          DFT functionals, gCP, sTDA/sTD-DF
   Ed Valeev, F. Pavosevic, A. Kumar             : LibInt (2-el integral package), F12 methods
   Garnet Chan, S. Sharma, J. Yang, R. Olivares  : DMRG
   Ulf Ekstrom                                   : XCFun DFT Library
   Mihaly Kallay                                 : mrcc  (arbitrary order and MRCC methods)
   Jiri Pittner, Ondrej Demel                    : Mk-CCSD
   Frank Weinhold                                : gennbo (NPA and NBO analysis)
   Christopher J. Cramer and Donald G. Truhlar   : smd solvation model
   Lars Goerigk                                  : TD-DFT with DH, B97 family of functionals
   V. Asgeirsson, H. Jonsson                     : NEB implementation
   FAccTs GmbH                                   : IRC, NEB, NEB-TS, DLPNO-Multilevel, CI-OPT
                                                   MM, QMMM, 2- and 3-layer-ONIOM, Crystal-QMMM,
                                                   LR-CPCM, SF, NACMEs, symmetry and pop. for TD-DFT,
                                                   nearIR, NL-DFT gradient (VV10), updates on ESD,
                                                   ML-optimized integration grids
   S Lehtola, MJT Oliveira, MAL Marques          : LibXC Library
   Liviu Ungur et al                             : ANISO software


 Your calculation uses the libint2 library for the computation of 2-el integrals
 For citations please refer to: http://libint.valeyev.net

 Your ORCA version has been built with support for libXC version: 5.1.0
 For citations please refer to: https://tddft.org/programs/libxc/

 This ORCA versions uses:
   CBLAS   interface :  Fast vector & matrix operations
   LAPACKE interface :  Fast linear algebra routines
   SCALAPACK package :  Parallel linear algebra routines
   Shared memory     :  Shared parallel matrices
   BLAS/LAPACK       :  OpenBLAS 0.3.15  USE64BITINT DYNAMIC_ARCH NO_AFFINITY Haswell SINGLE_THREADED
        Core in use  :  Haswell
   Copyright (c) 2011-2014, The OpenBLAS Project


================================================================================

----- Orbital basis set information -----
Your calculation utilizes the basis: 6-31G
   H-He, Li-Ne : W. J. Hehre, R. Ditchfield and J.A. Pople, J. Chem. Phys. 56, 2257 (1972).
                 Note: He and Ne are unpublished basis sets taken from the Gaussian program.
                 Note: Li and B from J. D. Dill and J. A. Pople, J. Chem. Phys. 62, 2921 (1975).
   Na - Ar     : M. M. Francl, W. J. Pietro, W. J. Hehre, J. S. Binkley, M. S. Gordon, 
                 D. J. DeFrees and J. A. Pople, J. Chem. Phys. 77, 3654 (1982).
   K - Zn      : V. A. Rassolov, J. A. Pople, M. A. Ratner, and T. L. Windus, J. Chem. Phys. 109, 1223 (1998).

----- AuxJ basis set information -----
Your calculation utilizes the auxiliary basis: def2/J
   F. Weigend, Phys. Chem. Chem. Phys. 8, 1057 (2006).

================================================================================
                                        WARNINGS
                       Please study these warnings very carefully!
================================================================================

INFO   : Checking CIS options ...

INFO   : the flag for use of the SHARK integral package has been found!

================================================================================
                                       INPUT FILE
================================================================================
NAME = acrolien.701.com
|  1> ! B3LYP 6-31G
|  2> !TightSCF
|  3> %scf
|  4>  ConvForced true
|  5>  convergence tight
|  6>  MaxIter 500
|  7> end
|  8>  
|  9> %tddft 
| 10>  nroots 1
| 11> end
| 12> 
| 13> # 	26498
| 14> * xyz 0 1
| 15> 		C   -0.549679  -0.418916   0.011296
| 16> 		O   -0.594895  -1.602043  -0.005725
| 17> 		C    0.622964   0.334066  -0.060444
| 18> 		C    1.822845  -0.095744   0.027210
| 19> 		H   -1.527034   0.114134   0.262568
| 20> 		H    0.574986   1.407484   0.018433
| 21> 		H    1.999352  -1.106212  -0.101211
| 22> 		H    2.747722   0.416705   0.180370
| 23> *
| 24> 
| 25>                          ****END OF INPUT****
================================================================================

                       ****************************
                       * Single Point Calculation *
                       ****************************

---------------------------------
CARTESIAN COORDINATES (ANGSTROEM)
---------------------------------
  C     -0.549679   -0.418916    0.011296
  O     -0.594895   -1.602043   -0.005725
  C      0.622964    0.334066   -0.060444
  C      1.822845   -0.095744    0.027210
  H     -1.527034    0.114134    0.262568
  H      0.574986    1.407484    0.018433
  H      1.999352   -1.106212   -0.101211
  H      2.747722    0.416705    0.180370

----------------------------
CARTESIAN COORDINATES (A.U.)
----------------------------
  NO LB      ZA    FRAG     MASS         X           Y           Z
   0 C     6.0000    0    12.011   -1.038743   -0.791637    0.021346
   1 O     8.0000    0    15.999   -1.124189   -3.027423   -0.010819
   2 C     6.0000    0    12.011    1.177231    0.631293   -0.114223
   3 C     6.0000    0    12.011    3.444678   -0.180930    0.051419
   4 H     1.0000    0     1.008   -2.885676    0.215682    0.496182
   5 H     1.0000    0     1.008    1.086566    2.659759    0.034833
   6 H     1.0000    0     1.008    3.778228   -2.090438   -0.191261
   7 H     1.0000    0     1.008    5.192442    0.787458    0.340850

--------------------------------
INTERNAL COORDINATES (ANGSTROEM)
--------------------------------
 C      0   0   0     0.000000000000     0.00000000     0.00000000
 O      1   0   0     1.184113043263     0.00000000     0.00000000
 C      1   2   0     1.395428294601   124.78559531     0.00000000
 C      3   1   2     1.277550106249   127.17046396   349.75033104
 H      1   2   3     1.141272411175   115.92161988   189.59600791
 H      3   1   2     1.077380931861   119.76444071   183.48513914
 H      4   3   1     1.033775726797   118.73011110    17.06061592
 H      4   3   1     1.068391046541   131.41521678   194.23259531

---------------------------
INTERNAL COORDINATES (A.U.)
---------------------------
 C      0   0   0     0.000000000000     0.00000000     0.00000000
 O      1   0   0     2.237649363371     0.00000000     0.00000000
 C      1   2   0     2.636977316321   124.78559531     0.00000000
 C      3   1   2     2.414219823173   127.17046396   349.75033104
 H      1   2   3     2.156692301321   115.92161988   189.59600791
 H      3   1   2     2.035954903126   119.76444071   183.48513914
 H      4   3   1     1.953553007541   118.73011110    17.06061592
 H      4   3   1     2.018966481897   131.41521678   194.23259531

---------------------
BASIS SET INFORMATION
---------------------
There are 3 groups of distinct atoms

 Group   1 Type C   : 10s4p contracted to 3s2p pattern {631/31}
 Group   2 Type O   : 10s4p contracted to 3s2p pattern {631/31}
 Group   3 Type H   : 4s contracted to 2s pattern {31}

Atom   0C    basis set group =>   1
Atom   1O    basis set group =>   2
Atom   2C    basis set group =>   1
Atom   3C    basis set group =>   1
Atom   4H    basis set group =>   3
Atom   5H    basis set group =>   3
Atom   6H    basis set group =>   3
Atom   7H    basis set group =>   3
---------------------------------
AUXILIARY/J BASIS SET INFORMATION
---------------------------------
There are 3 groups of distinct atoms

 Group   1 Type C   : 12s5p4d2f1g contracted to 6s4p3d1f1g pattern {711111/2111/211/2/1}
 Group   2 Type O   : 12s5p4d2f1g contracted to 6s4p3d1f1g pattern {711111/2111/211/2/1}
 Group   3 Type H   : 5s2p1d contracted to 3s1p1d pattern {311/2/1}

Atom   0C    basis set group =>   1
Atom   1O    basis set group =>   2
Atom   2C    basis set group =>   1
Atom   3C    basis set group =>   1
Atom   4H    basis set group =>   3
Atom   5H    basis set group =>   3
Atom   6H    basis set group =>   3
Atom   7H    basis set group =>   3
------------------------------------------------------------------------------
                           ORCA GTO INTEGRAL CALCULATION
                           -- RI-GTO INTEGRALS CHOSEN --
------------------------------------------------------------------------------
------------------------------------------------------------------------------
                   ___                                                        
                  /   \      - P O W E R E D   B Y -                         
                 /     \                                                     
                 |  |  |   _    _      __       _____    __    __             
                 |  |  |  | |  | |    /  \     |  _  \  |  |  /  |          
                  \  \/   | |  | |   /    \    | | | |  |  | /  /          
                 / \  \   | |__| |  /  /\  \   | |_| |  |  |/  /          
                |  |  |   |  __  | /  /__\  \  |    /   |      \           
                |  |  |   | |  | | |   __   |  |    \   |  |\   \          
                \     /   | |  | | |  |  |  |  | |\  \  |  | \   \       
                 \___/    |_|  |_| |__|  |__|  |_| \__\ |__|  \__/        
                                                                              
                      - O R C A' S   B I G   F R I E N D -                    
                                      &                                       
                       - I N T E G R A L  F E E D E R -                       
                                                                              
 v1 FN, 2020, v2 2021                                                         
------------------------------------------------------------------------------


Reading SHARK input file acrolien.701.SHARKINP.tmp ... ok
----------------------
SHARK INTEGRAL PACKAGE
----------------------

Number of atoms                             ...      8
Number of basis functions                   ...     44
Number of shells                            ...     28
Maximum angular momentum                    ...      1
Integral batch strategy                     ... SHARK/LIBINT Hybrid
RI-J (if used) integral strategy            ... SPLIT-RIJ (Revised 2003 algorithm where possible)
Printlevel                                  ...      1
Contraction scheme used                     ... SEGMENTED contraction
Coulomb Range Separation                    ... NOT USED
Exchange Range Separation                   ... NOT USED
Finite Nucleus Model                        ... NOT USED
Auxiliary Coulomb fitting basis             ... AVAILABLE
   # of basis functions in Aux-J            ...    240
   # of shells in Aux-J                     ...     80
   Maximum angular momentum in Aux-J        ...      4
Auxiliary J/K fitting basis                 ... NOT available
Auxiliary Correlation fitting basis         ... NOT available
Auxiliary 'external' fitting basis          ... NOT available
Integral threshold                          ...     2.500000e-11
Primitive cut-off                           ...     2.500000e-12
Primitive pair pre-selection threshold      ...     2.500000e-12

Calculating pre-screening integrals         ... done (  0.0 sec) Dimension = 28
Organizing shell pair data                  ... done (  0.1 sec)
Shell pair information
Total number of shell pairs                 ...       406
Shell pairs after pre-screening             ...       402
Total number of primitive shell pairs       ...      2724
Primitive shell pairs kept                  ...      2033
          la=0 lb=0:    206 shell pairs
          la=1 lb=0:    160 shell pairs
          la=1 lb=1:     36 shell pairs

Calculating one electron integrals          ... done (  0.0 sec)
Calculating RI/J V-Matrix + Cholesky decomp.... done (  0.1 sec)
Calculating Nuclear repulsion               ... done (  0.0 sec) ENN=    107.806979057473 Eh

SHARK setup successfully completed in   1.2 seconds

Maximum memory used throughout the entire GTOINT-calculation: 8.3 MB
-------------------------------------------------------------------------------
                                 ORCA SCF
-------------------------------------------------------------------------------

------------
SCF SETTINGS
------------
Hamiltonian:
 Density Functional     Method          .... DFT(GTOs)
 Exchange Functional    Exchange        .... B88
   X-Alpha parameter    XAlpha          ....  0.666667
   Becke's b parameter  XBeta           ....  0.004200
 Correlation Functional Correlation     .... LYP
 LDA part of GGA corr.  LDAOpt          .... VWN-5
 Gradients option       PostSCFGGA      .... off
 Hybrid DFT is turned on
   Fraction HF Exchange ScalHFX         ....  0.200000
   Scaling of DF-GGA-X  ScalDFX         ....  0.720000
   Scaling of DF-GGA-C  ScalDFC         ....  0.810000
   Scaling of DF-LDA-C  ScalLDAC        ....  1.000000
   Perturbative correction              ....  0.000000
   Density functional embedding theory  .... OFF
   NL short-range parameter             ....  4.800000
 RI-approximation to the Coulomb term is turned on
   Number of AuxJ basis functions       .... 240
   RIJ-COSX (HFX calculated with COS-X)).... on


General Settings:
 Integral files         IntName         .... acrolien.701
 Hartree-Fock type      HFTyp           .... RHF
 Total Charge           Charge          ....    0
 Multiplicity           Mult            ....    1
 Number of Electrons    NEL             ....   30
 Basis Dimension        Dim             ....   44
 Nuclear Repulsion      ENuc            ....    107.8069790575 Eh

Convergence Acceleration:
 DIIS                   CNVDIIS         .... on
   Start iteration      DIISMaxIt       ....    12
   Startup error        DIISStart       ....  0.200000
   # of expansion vecs  DIISMaxEq       ....     5
   Bias factor          DIISBfac        ....   1.050
   Max. coefficient     DIISMaxC        ....  10.000
 Trust-Rad. Augm. Hess. CNVTRAH         .... auto
   Auto Start mean grad. ratio tolernc. ....  1.125000
   Auto Start start iteration           ....    20
   Auto Start num. interpolation iter.  ....    10
   Max. Number of Micro iterations      ....    16
   Max. Number of Macro iterations      .... Maxiter - #DIIS iter
   Number of Davidson start vectors     ....     2
   Converg. threshold I  (grad. norm)   ....   1.000e-05
   Converg. threshold II (energy diff.) ....   1.000e-08
   Grad. Scal. Fac. for Micro threshold ....   0.100
   Minimum threshold for Micro iter.    ....   0.010
   NR start threshold (gradient norm)   ....   0.001
   Initial trust radius                 ....   0.400
   Minimum AH scaling param. (alpha)    ....   1.000
   Maximum AH scaling param. (alpha)    .... 1000.000
   Orbital update algorithm             .... Taylor
   White noise on init. David. guess    .... on
   Maximum white noise                  ....   0.010
   Quad. conv. algorithm                .... NR
 SOSCF                  CNVSOSCF        .... on
   Start iteration      SOSCFMaxIt      ....   150
   Startup grad/error   SOSCFStart      ....  0.003300
 Level Shifting         CNVShift        .... on
   Level shift para.    LevelShift      ....    0.2500
   Turn off err/grad.   ShiftErr        ....    0.0010
 Zerner damping         CNVZerner       .... off
 Static damping         CNVDamp         .... on
   Fraction old density DampFac         ....    0.7000
   Max. Damping (<1)    DampMax         ....    0.9800
   Min. Damping (>=0)   DampMin         ....    0.0000
   Turn off err/grad.   DampErr         ....    0.1000
 Fernandez-Rico         CNVRico         .... off

SCF Procedure:
 Maximum # iterations   MaxIter         ....   500
 SCF integral mode      SCFMode         .... Direct
   Integral package                     .... SHARK and LIBINT hybrid scheme
 Reset frequency        DirectResetFreq ....    20
 Integral Threshold     Thresh          ....  2.500e-11 Eh
 Primitive CutOff       TCut            ....  2.500e-12 Eh

Convergence Tolerance:
 Convergence Check Mode ConvCheckMode   .... Total+1el-Energy
 Convergence forced     ConvForced      .... 1
 Energy Change          TolE            ....  1.000e-08 Eh
 1-El. energy change                    ....  1.000e-05 Eh
 Orbital Gradient       TolG            ....  1.000e-05
 Orbital Rotation angle TolX            ....  1.000e-05
 DIIS Error             TolErr          ....  5.000e-07


Diagonalization of the overlap matrix:
Smallest eigenvalue                        ... 3.592e-03
Time for diagonalization                   ...    0.058 sec
Threshold for overlap eigenvalues          ... 1.000e-08
Number of eigenvalues below threshold      ... 0
Time for construction of square roots      ...    0.078 sec
Total time needed                          ...    0.136 sec

Time for model grid setup =    0.058 sec

------------------------------
INITIAL GUESS: MODEL POTENTIAL
------------------------------
Loading Hartree-Fock densities                     ... done
Calculating cut-offs                               ... done
Initializing the effective Hamiltonian             ... done
Setting up the integral package (SHARK)            ... done
Starting the Coulomb interaction                   ... done (   0.8 sec)
Reading the grid                                   ... done
Mapping shells                                     ... done
Starting the XC term evaluation                    ... done (   0.0 sec)
  promolecular density results
     # of electrons  =     29.999554489
     EX              =    -24.812520773
     EC              =     -1.001702885
     EX+EC           =    -25.814223658
Transforming the Hamiltonian                       ... done (   0.0 sec)
Diagonalizing the Hamiltonian                      ... done (   0.0 sec)
Back transforming the eigenvectors                 ... done (   0.0 sec)
Now organizing SCF variables                       ... done
                      ------------------
                      INITIAL GUESS DONE (   0.9 sec)
                      ------------------
-------------------
DFT GRID GENERATION
-------------------

General Integration Accuracy     IntAcc      ... 4.388
Radial Grid Type                 RadialGrid  ... OptM3 with GC (2021)
Angular Grid (max. ang.)         AngularGrid ... 4 (Lebedev-302)
Angular grid pruning method      GridPruning ... 4 (adaptive)
Weight generation scheme         WeightScheme... Becke
Basis function cutoff            BFCut       ... 1.0000e-11
Integration weight cutoff        WCut        ... 1.0000e-14
Angular grids for H and He will be reduced by one unit
Partially contracted basis set               ... off
Rotationally invariant grid construction     ... off

Total number of grid points                  ...    37329
Total number of batches                      ...      587
Average number of points per batch           ...       63
Average number of grid points per atom       ...     4666
Time for grid setup =    0.615 sec

--------------------
COSX GRID GENERATION
--------------------

GRIDX 1
-------
General Integration Accuracy     IntAcc      ... 3.816
Radial Grid Type                 RadialGrid  ... OptM3 with GC (2021)
Angular Grid (max. ang.)         AngularGrid ... 1 (Lebedev-50)
Angular grid pruning method      GridPruning ... 4 (adaptive)
Weight generation scheme         WeightScheme... Becke
Basis function cutoff            BFCut       ... 1.0000e-11
Integration weight cutoff        WCut        ... 1.0000e-14
Angular grids for H and He will be reduced by one unit
Partially contracted basis set               ... on
Rotationally invariant grid construction     ... off

Total number of grid points                  ...     4792
Total number of batches                      ...       79
Average number of points per batch           ...       60
Average number of grid points per atom       ...      599
UseSFitting                                  ... on

GRIDX 2
-------
General Integration Accuracy     IntAcc      ... 4.020
Radial Grid Type                 RadialGrid  ... OptM3 with GC (2021)
Angular Grid (max. ang.)         AngularGrid ... 2 (Lebedev-110)
Angular grid pruning method      GridPruning ... 4 (adaptive)
Weight generation scheme         WeightScheme... Becke
Basis function cutoff            BFCut       ... 1.0000e-11
Integration weight cutoff        WCut        ... 1.0000e-14
Angular grids for H and He will be reduced by one unit
Partially contracted basis set               ... on
Rotationally invariant grid construction     ... off

Total number of grid points                  ...    10537
Total number of batches                      ...      169
Average number of points per batch           ...       62
Average number of grid points per atom       ...     1317
UseSFitting                                  ... on

GRIDX 3
-------
General Integration Accuracy     IntAcc      ... 4.338
Radial Grid Type                 RadialGrid  ... OptM3 with GC (2021)
Angular Grid (max. ang.)         AngularGrid ... 3 (Lebedev-194)
Angular grid pruning method      GridPruning ... 4 (adaptive)
Weight generation scheme         WeightScheme... Becke
Basis function cutoff            BFCut       ... 1.0000e-11
Integration weight cutoff        WCut        ... 1.0000e-14
Angular grids for H and He will be reduced by one unit
Partially contracted basis set               ... on
Rotationally invariant grid construction     ... off

Total number of grid points                  ...    23236
Total number of batches                      ...      367
Average number of points per batch           ...       63
Average number of grid points per atom       ...     2904
UseSFitting                                  ... on

Time for X-Grid setup             =    1.357 sec

--------------
SCF ITERATIONS
--------------
ITER       Energy         Delta-E        Max-DP      RMS-DP      [F,P]     Damp
               ***  Starting incremental Fock matrix formation  ***
  0   -191.5758196018   0.000000000000 0.12961482  0.00874985  0.2511348 0.7000
  1   -191.6425855157  -0.066765913927 0.06944025  0.00532636  0.0970956 0.7000
                               ***Turning on DIIS***
  2   -191.6661342411  -0.023548725392 0.06899385  0.00678818  0.0363224 0.0000
  3   -191.7070714790  -0.040937237932 0.05376759  0.00404880  0.0483415 0.0000
  4   -191.7142575672  -0.007186088179 0.01156415  0.00119120  0.0212071 0.0000
                      *** Initiating the SOSCF procedure ***
                           *** Shutting down DIIS ***
                      *** Re-Reading the Fockian *** 
                      *** Removing any level shift *** 
ITER      Energy       Delta-E        Grad      Rot      Max-DP    RMS-DP
  5   -191.71517689  -0.0009193221  0.000603  0.000603  0.003941  0.000316
               *** Restarting incremental Fock matrix formation ***
  6   -191.71522019  -0.0000432999  0.000280  0.000751  0.002007  0.000165
  7   -191.71522102  -0.0000008330  0.000299  0.000371  0.001122  0.000070
  8   -191.71522182  -0.0000007993  0.000160  0.000235  0.000551  0.000046
  9   -191.71522188  -0.0000000552  0.000111  0.000129  0.000189  0.000014
 10   -191.71522202  -0.0000001388  0.000044  0.000148  0.000117  0.000012
 11   -191.71522201   0.0000000018  0.000045  0.000072  0.000065  0.000005
 12   -191.71522203  -0.0000000158  0.000004  0.000011  0.000035  0.000002
                  ***Gradient check signals convergence***
              ***Rediagonalizing the Fockian in SOSCF/NRSCF***

               *****************************************************
               *                     SUCCESS                       *
               *           SCF CONVERGED AFTER  13 CYCLES          *
               *****************************************************

Old exchange energy                            =     -5.047153413 Eh
New exchange energy                            =     -5.047137301 Eh
Exchange energy change after final integration =      0.000016113 Eh
Total energy after final integration           =   -191.715205917 Eh
Final COS-X integration done in                =     0.810 sec

----------------
TOTAL SCF ENERGY
----------------

Total Energy       :         -191.71520592 Eh           -5216.83597 eV

Components:
Nuclear Repulsion  :          107.80697906 Eh            2933.57704 eV
Electronic Energy  :         -299.52218497 Eh           -8150.41301 eV
One Electron Energy:         -472.39373912 Eh          -12854.48715 eV
Two Electron Energy:          172.87155415 Eh            4704.07414 eV
Max COSX asymmetry :            0.00000118 Eh               0.00003 eV

Virial components:
Potential Energy   :         -383.14432991 Eh          -10425.88726 eV
Kinetic Energy     :          191.42912399 Eh            5209.05129 eV
Virial Ratio       :            2.00149445


DFT components:
N(Alpha)           :       15.000004123907 electrons
N(Beta)            :       15.000004123907 electrons
N(Total)           :       30.000008247814 electrons
E(X)               :      -20.079088958559 Eh       
E(C)               :       -1.189817748278 Eh       
E(XC)              :      -21.268906706836 Eh       
DFET-embed. en.    :        0.000000000000 Eh       

---------------
SCF CONVERGENCE
---------------

  Last Energy change         ...   -3.3623e-11  Tolerance :   1.0000e-08
  Last MAX-Density change    ...    3.5527e-15  Tolerance :   1.0000e-07
  Last RMS-Density change    ...    1.3991e-16  Tolerance :   5.0000e-09
  Last Orbital Gradient      ...    1.4087e-06  Tolerance :   1.0000e-05
  Last Orbital Rotation      ...    2.7221e-06  Tolerance :   1.0000e-05

             **** THE GBW FILE WAS UPDATED (acrolien.701.gbw) ****
             **** DENSITY acrolien.701.scfp WAS UPDATED ****
             **** ENERGY FILE WAS UPDATED (acrolien.701.en.tmp) ****
             **** THE GBW FILE WAS UPDATED (acrolien.701.gbw) ****
             **** DENSITY acrolien.701.scfp WAS UPDATED ****
----------------
ORBITAL ENERGIES
----------------

  NO   OCC          E(Eh)            E(eV) 
   0   2.0000     -19.143310      -520.9159 
   1   2.0000     -10.272509      -279.5292 
   2   2.0000     -10.196081      -277.4495 
   3   2.0000     -10.190521      -277.2982 
   4   2.0000      -1.086220       -29.5576 
   5   2.0000      -0.821900       -22.3650 
   6   2.0000      -0.672947       -18.3118 
   7   2.0000      -0.551452       -15.0058 
   8   2.0000      -0.531019       -14.4498 
   9   2.0000      -0.460159       -12.5216 
  10   2.0000      -0.431727       -11.7479 
  11   2.0000      -0.418013       -11.3747 
  12   2.0000      -0.368813       -10.0359 
  13   2.0000      -0.296287        -8.0624 
  14   2.0000      -0.253740        -6.9046 
  15   0.0000      -0.065296        -1.7768 
  16   0.0000       0.077108         2.0982 
  17   0.0000       0.103629         2.8199 
  18   0.0000       0.143620         3.9081 
  19   0.0000       0.169255         4.6057 
  20   0.0000       0.191671         5.2156 
  21   0.0000       0.275746         7.5034 
  22   0.0000       0.346548         9.4300 
  23   0.0000       0.389839        10.6081 
  24   0.0000       0.505808        13.7637 
  25   0.0000       0.522950        14.2302 
  26   0.0000       0.577288        15.7088 
  27   0.0000       0.596569        16.2335 
  28   0.0000       0.646928        17.6038 
  29   0.0000       0.655832        17.8461 
  30   0.0000       0.716872        19.5071 
  31   0.0000       0.779310        21.2061 
  32   0.0000       0.820834        22.3360 
  33   0.0000       0.866945        23.5908 
  34   0.0000       0.901939        24.5430 
  35   0.0000       0.931432        25.3455 
  36   0.0000       0.984014        26.7764 
  37   0.0000       0.999339        27.1934 
  38   0.0000       1.036696        28.2099 
  39   0.0000       1.098082        29.8803 
  40   0.0000       1.154719        31.4215 
  41   0.0000       1.186220        32.2787 
  42   0.0000       1.327738        36.1296 
  43   0.0000       1.784837        48.5679 

                    ********************************
                    * MULLIKEN POPULATION ANALYSIS *
                    ********************************

-----------------------
MULLIKEN ATOMIC CHARGES
-----------------------
   0 C :    0.149950
   1 O :   -0.347274
   2 C :   -0.093614
   3 C :   -0.253532
   4 H :    0.095578
   5 H :    0.132628
   6 H :    0.157967
   7 H :    0.158297
Sum of atomic charges:   -0.0000000

--------------------------------
MULLIKEN REDUCED ORBITAL CHARGES
--------------------------------
  0 C s       :     3.160694  s :     3.160694
      pz      :     0.821595  p :     2.689356
      px      :     1.049241
      py      :     0.818519
  1 O s       :     3.924314  s :     3.924314
      pz      :     1.295432  p :     4.422960
      px      :     1.790446
      py      :     1.337083
  2 C s       :     3.159852  s :     3.159852
      pz      :     1.020556  p :     2.933762
      px      :     0.902849
      py      :     1.010357
  3 C s       :     3.246293  s :     3.246293
      pz      :     0.897853  p :     3.007239
      px      :     1.028920
      py      :     1.080465
  4 H s       :     0.904422  s :     0.904422
  5 H s       :     0.867372  s :     0.867372
  6 H s       :     0.842033  s :     0.842033
  7 H s       :     0.841703  s :     0.841703


                     *******************************
                     * LOEWDIN POPULATION ANALYSIS *
                     *******************************

----------------------
LOEWDIN ATOMIC CHARGES
----------------------
   0 C :    0.105561
   1 O :   -0.220305
   2 C :   -0.179287
   3 C :   -0.147281
   4 H :    0.069709
   5 H :    0.121692
   6 H :    0.122474
   7 H :    0.127438

-------------------------------
LOEWDIN REDUCED ORBITAL CHARGES
-------------------------------
  0 C s       :     2.951461  s :     2.951461
      pz      :     0.821146  p :     2.942978
      px      :     1.088145
      py      :     1.033687
  1 O s       :     3.609725  s :     3.609725
      pz      :     1.299846  p :     4.610580
      px      :     1.839465
      py      :     1.471269
  2 C s       :     2.942866  s :     2.942866
      pz      :     1.011699  p :     3.236421
      px      :     1.118991
      py      :     1.105731
  3 C s       :     2.975798  s :     2.975798
      pz      :     0.904482  p :     3.171483
      px      :     1.121831
      py      :     1.145169
  4 H s       :     0.930291  s :     0.930291
  5 H s       :     0.878308  s :     0.878308
  6 H s       :     0.877526  s :     0.877526
  7 H s       :     0.872562  s :     0.872562


                      *****************************
                      * MAYER POPULATION ANALYSIS *
                      *****************************

  NA   - Mulliken gross atomic population
  ZA   - Total nuclear charge
  QA   - Mulliken gross atomic charge
  VA   - Mayer's total valence
  BVA  - Mayer's bonded valence
  FA   - Mayer's free valence

  ATOM       NA         ZA         QA         VA         BVA        FA
  0 C      5.8500     6.0000     0.1500     3.8038     3.8038    -0.0000
  1 O      8.3473     8.0000    -0.3473     2.0467     2.0467    -0.0000
  2 C      6.0936     6.0000    -0.0936     3.7562     3.7562     0.0000
  3 C      6.2535     6.0000    -0.2535     3.8661     3.8661     0.0000
  4 H      0.9044     1.0000     0.0956     0.9343     0.9343     0.0000
  5 H      0.8674     1.0000     0.1326     0.9408     0.9408     0.0000
  6 H      0.8420     1.0000     0.1580     0.9392     0.9392     0.0000
  7 H      0.8417     1.0000     0.1583     0.9339     0.9339     0.0000

  Mayer bond orders larger than 0.100000
B(  0-C ,  1-O ) :   1.8972 B(  0-C ,  2-C ) :   1.0016 B(  0-C ,  4-H ) :   0.8834 
B(  1-O ,  3-C ) :   0.1071 B(  2-C ,  3-C ) :   1.8867 B(  2-C ,  5-H ) :   0.9346 
B(  3-C ,  6-H ) :   0.9394 B(  3-C ,  7-H ) :   0.9365 

-------
TIMINGS
-------

Total SCF time: 0 days 0 hours 0 min 49 sec 

Total time                  ....      49.575 sec
Sum of individual times     ....      41.591 sec  ( 83.9%)

Fock matrix formation       ....      38.718 sec  ( 78.1%)
  Split-RI-J                ....       0.652 sec  (  1.7% of F)
  Chain of spheres X        ....       4.787 sec  ( 12.4% of F)
  XC integration            ....      12.143 sec  ( 31.4% of F)
    Basis function eval.    ....       1.104 sec  (  9.1% of XC)
    Density eval.           ....       0.491 sec  (  4.0% of XC)
    XC-Functional eval.     ....       0.653 sec  (  5.4% of XC)
    XC-Potential eval.      ....       0.256 sec  (  2.1% of XC)
Diagonalization             ....       0.003 sec  (  0.0%)
Density matrix formation    ....       0.000 sec  (  0.0%)
Population analysis         ....       0.002 sec  (  0.0%)
Initial guess               ....       0.833 sec  (  1.7%)
Orbital Transformation      ....       0.000 sec  (  0.0%)
Orbital Orthonormalization  ....       0.000 sec  (  0.0%)
DIIS solution               ....       0.001 sec  (  0.0%)
SOSCF solution              ....       0.002 sec  (  0.0%)
Grid generation             ....       2.030 sec  (  4.1%)

Maximum memory used throughout the entire SCF-calculation: 46.8 MB
------------------------------------------------------------------------------
                        ORCA TD-DFT/TDA CALCULATION
------------------------------------------------------------------------------

Input orbitals are from        ... acrolien.701.gbw
CI-vector output               ... acrolien.701.cis
Tamm-Dancoff approximation     ... operative
CIS-Integral strategy          ... AO-integrals
Integral handling              ... AO integral Direct
Max. core memory used          ... 512 MB
Reference state                ... RHF
Generation of triplets         ... off
Follow IRoot                   ... off
Number of operators            ... 1
Orbital ranges used for CIS calculation:
 Operator 0:  Orbitals   4... 14  to  15... 43
XAS localization array:
 Operator 0:  Orbitals  -1... -1

-------------------
XC-INTEGRATION GRID
-------------------

General Integration Accuracy     IntAcc      ... 3.467
Radial Grid Type                 RadialGrid  ... OptM3 with GC (2021)
Angular Grid (max. ang.)         AngularGrid ... 1 (Lebedev-50)
Angular grid pruning method      GridPruning ... 4 (adaptive)
Weight generation scheme         WeightScheme... Becke
Basis function cutoff            BFCut       ... 1.0000e-11
Integration weight cutoff        WCut        ... 1.0000e-14
Angular grids for H and He will be reduced by one unit
Partially contracted basis set               ... off
Rotationally invariant grid construction     ... off

Total number of grid points                  ...     5483
Total number of batches                      ...       91
Average number of points per batch           ...       60
Average number of grid points per atom       ...      685

---------------------
COSX-INTEGRATION GRID
---------------------

General Integration Accuracy     IntAcc      ... 3.067
Radial Grid Type                 RadialGrid  ... OptM3 with GC (2021)
Angular Grid (max. ang.)         AngularGrid ... 1 (Lebedev-50)
Angular grid pruning method      GridPruning ... 4 (adaptive)
Weight generation scheme         WeightScheme... Becke
Basis function cutoff            BFCut       ... 1.0000e-11
Integration weight cutoff        WCut        ... 1.0000e-14
Angular grids for H and He will be reduced by one unit
Partially contracted basis set               ... on
Rotationally invariant grid construction     ... off

Total number of grid points                  ...     2500
Total number of batches                      ...       45
Average number of points per batch           ...       55
Average number of grid points per atom       ...      312

---------------
TD-DFT XC SETUP
---------------

DFT calculation                         ... on
Name of the grid file                   ... acrolien.701.grid_cis.tmp
Exchange functional (TD-DFT)            ... B88
   X-Alpha parameter    XAlpha (TD-DFT) ...  0.666667
   Becke's b parameter  XBeta (TD-DFT)  ...  0.004200
Correlation functional (TD-DFT)         ... LYP
 LDA part of GGA corr.  LDAOpt (TD-DFT) ... VWN-5
Hybrid DFT                              ... on
   Exchange mixing (TD-DFT)             ...  0.200
   GGA exch. scaling (TD-DFT)           ...  0.720
   GGA corr. scaling (TD-DFT)           ...  0.810

Building densities             ... done
Calculating rho(r) on the grid ... done
Building xc-kernel on the grid ... done
                    *** TD-DFT CALCULATION INITIALIZED ***

------------------------
DAVIDSON-DIAGONALIZATION
------------------------

Dimension of the eigenvalue problem            ...    319
Number of roots to be determined               ...      1
Maximum size of the expansion space            ...     10
Maximum number of iterations                   ...    100
Convergence tolerance for the residual         ...    2.500e-07
Convergence tolerance for the energies         ...    2.500e-07
Orthogonality tolerance                        ...    1.000e-14
Level Shift                                    ...    0.000e+00
Constructing the preconditioner                ... o.k.
Building the initial guess                     ... o.k.
Number of trial vectors determined             ...     10


                       ****Iteration    0****

   Memory handling for direct AO based CIS:
   Memory per vector needed      ...     1 MB
   Memory needed                 ...     0 MB
   Memory available              ...   512 MB
   Number of vectors per batch   ...   512
   Number of batches             ...     1
   Time for densities:            0.000
   Time for RI-J (Direct):        0.044
   Time for K (COSX):             0.531
   Time for XC-Integration:       0.039
   Time for Sigma-Completion:     0.000
   Size of expansion space: 3
   Lowest Energy          :     0.130871005011
   Maximum Energy change  :     0.130871005011 (vector 0)
   Maximum residual norm  :     0.000707708400

                       ****Iteration    1****
   Time for densities:            0.000
   Time for RI-J (Direct):        0.035
   Time for K (COSX):             0.107
   Time for XC-Integration:       0.022
   Time for Sigma-Completion:     0.000
   Size of expansion space: 4
   Lowest Energy          :     0.128472119630
   Maximum Energy change  :     0.002398885380 (vector 0)
   Maximum residual norm  :     0.000066630558

                       ****Iteration    2****
   Time for densities:            0.000
   Time for RI-J (Direct):        0.035
   Time for K (COSX):             0.511
   Time for XC-Integration:       0.023
   Time for Sigma-Completion:     0.000
   Size of expansion space: 5
   Lowest Energy          :     0.128403343572
   Maximum Energy change  :     0.000068776058 (vector 0)
   Maximum residual norm  :     0.000007543563

                       ****Iteration    3****
   Time for densities:            0.000
   Time for RI-J (Direct):        0.035
   Time for K (COSX):             0.188
   Time for XC-Integration:       0.022
   Time for Sigma-Completion:     0.000
   Size of expansion space: 6
   Lowest Energy          :     0.128394687118
   Maximum Energy change  :     0.000008656454 (vector 0)
   Maximum residual norm  :     0.000000732183

                       ****Iteration    4****
   Time for densities:            0.000
   Time for RI-J (Direct):        0.035
   Time for K (COSX):             0.417
   Time for XC-Integration:       0.023
   Time for Sigma-Completion:     0.000
   Size of expansion space: 7
   Lowest Energy          :     0.128393914992
   Maximum Energy change  :     0.000000772126 (vector 0)
   Maximum residual norm  :     0.000000020920

      *** CONVERGENCE OF RESIDUAL NORM REACHED ***

Storing the converged CI vectors               ... acrolien.701.cis1

                 *** DAVIDSON DONE ***

Total time for solving the CIS problem:     4.487sec

------------------------------------
TD-DFT/TDA EXCITED STATES (SINGLETS)
------------------------------------

the weight of the individual excitations are printed if larger than 1.0e-02

STATE  1:  E=   0.128394 au      3.494 eV    28179.2 cm**-1 <S**2> =   0.000000
    14a ->  15a  :     0.986473 (c=  0.99321323)
    14a ->  16a  :     0.010019 (c=  0.10009486)


-----------------------------
TD-DFT/TDA-EXCITATION SPECTRA
-----------------------------

Center of mass = (  0.5758, -0.9088,  0.0003)
Calculating the Dipole integrals                  ... done
Transforming integrals                            ... done
Calculating the Linear Momentum integrals         ... done
Transforming integrals                            ... done
Calculating angular momentum integrals            ... done
Transforming integrals                            ... done

-----------------------------------------------------------------------------
         ABSORPTION SPECTRUM VIA TRANSITION ELECTRIC DIPOLE MOMENTS
-----------------------------------------------------------------------------
State   Energy    Wavelength  fosc         T2        TX        TY        TZ  
        (cm-1)      (nm)                 (au**2)    (au)      (au)      (au) 
-----------------------------------------------------------------------------
   1   28179.2    354.9   0.000250879   0.00293   0.04264   0.01111   0.03146

-----------------------------------------------------------------------------
         ABSORPTION SPECTRUM VIA TRANSITION VELOCITY DIPOLE MOMENTS
-----------------------------------------------------------------------------
State   Energy    Wavelength   fosc        P2         PX        PY        PZ  
        (cm-1)      (nm)                 (au**2)     (au)      (au)      (au) 
-----------------------------------------------------------------------------
   1   28179.2    354.9   0.000056195   0.00001   0.00066  -0.00218  -0.00237

-------------------------------------------------------------------
                             CD SPECTRUM
-------------------------------------------------------------------
State  Energy     Wavelength     R         MX        MY        MZ   
       (cm-1)       (nm)     (1e40*cgs)   (au)      (au)      (au)  
-------------------------------------------------------------------
   1   28179.2    354.9      2.91877   0.05883   0.39568  -0.02269

-------------------------------------------------------------------
         CD SPECTRUM VIA TRANSITION VELOCITY DIPOLE MOMENTS        
-------------------------------------------------------------------
State  Energy     Wavelength     R         MX        MY        MZ   
       (cm-1)       (nm)     (1e40*cgs)   (au)      (au)      (au)  
-------------------------------------------------------------------
   1   28179.2    354.9     -2.83065   0.05883   0.39568  -0.02269

Total run time:        7.007 sec

           *** ORCA-CIS/TD-DFT FINISHED WITHOUT ERROR ***

Maximum memory used throughout the entire CIS-calculation: 42.9 MB

-----------------------
CIS/TD-DFT TOTAL ENERGY
-----------------------

    E(SCF)  =   -191.715205917 Eh
    DE(CIS) =      0.128393915 Eh (Root  1)
    ----------------------------- ---------
    E(tot)  =   -191.586812002 Eh


-------------------------   --------------------
FINAL SINGLE POINT ENERGY      -191.586812001946
-------------------------   --------------------


                            ***************************************
                            *     ORCA property calculations      *
                            ***************************************

                                    ---------------------
                                    Active property flags
                                    ---------------------
   (+) Dipole Moment


------------------------------------------------------------------------------
                       ORCA ELECTRIC PROPERTIES CALCULATION
------------------------------------------------------------------------------

Dipole Moment Calculation                       ... on
Quadrupole Moment Calculation                   ... off
Polarizability Calculation                      ... off
GBWName                                         ... acrolien.701.gbw
Electron density                                ... acrolien.701.scfp
The origin for moment calculation is the CENTER OF MASS  = ( 0.575779, -0.908778  0.000268)

-------------
DIPOLE MOMENT
-------------
                                X             Y             Z
Electronic contribution:     -1.83478      -1.60912      -0.27904
Nuclear contribution   :      2.40369       2.56878       0.33727
                        -----------------------------------------
Total Dipole Moment    :      0.56892       0.95965       0.05823
                        -----------------------------------------
Magnitude (a.u.)       :      1.11714
Magnitude (Debye)      :      2.83954



--------------------
Rotational spectrum 
--------------------
 
Rotational constants in cm-1:     0.863895     0.213724     0.171922 
Rotational constants in MHz : 25898.925631  6407.272548  5154.085833 

 Dipole components along the rotational axes: 
x,y,z [a.u.] :     0.981759    -0.530064     0.056361 
x,y,z [Debye]:     2.495432    -1.347317     0.143257 

 

Timings for individual modules:

Sum of individual times         ...       58.859 sec (=   0.981 min)
GTO integral calculation        ...        1.491 sec (=   0.025 min)   2.5 %
SCF iterations                  ...       50.030 sec (=   0.834 min)  85.0 %
CIS module                      ...        7.338 sec (=   0.122 min)  12.5 %
                             ****ORCA TERMINATED NORMALLY****
TOTAL RUN TIME: 0 days 0 hours 1 minutes 0 seconds 536 msec
