
                                 *****************
                                 * O   R   C   A *
                                 *****************

                                            #,                                       
                                            ###                                      
                                            ####                                     
                                            #####                                    
                                            ######                                   
                                           ########,                                 
                                     ,,################,,,,,                         
                               ,,#################################,,                 
                          ,,##########################################,,             
                       ,#########################################, ''#####,          
                    ,#############################################,,   '####,        
                  ,##################################################,,,,####,       
                ,###########''''           ''''###############################       
              ,#####''   ,,,,##########,,,,          '''####'''          '####       
            ,##' ,,,,###########################,,,                        '##       
           ' ,,###''''                  '''############,,,                           
         ,,##''                                '''############,,,,        ,,,,,,###''
      ,#''                                            '''#######################'''  
     '                                                          ''''####''''         
             ,#######,   #######,   ,#######,      ##                                
            ,#'     '#,  ##    ##  ,#'     '#,    #''#        ######   ,####,        
            ##       ##  ##   ,#'  ##            #'  '#       #        #'  '#        
            ##       ##  #######   ##           ,######,      #####,   #    #        
            '#,     ,#'  ##    ##  '#,     ,#' ,#      #,         ##   #,  ,#        
             '#######'   ##     ##  '#######'  #'      '#     #####' # '####'        



                  #######################################################
                  #                        -***-                        #
                  #          Department of theory and spectroscopy      #
                  #    Directorship and core code : Frank Neese         #
                  #        Max Planck Institute fuer Kohlenforschung    #
                  #                Kaiser Wilhelm Platz 1               #
                  #                 D-45470 Muelheim/Ruhr               #
                  #                      Germany                        #
                  #                                                     #
                  #                  All rights reserved                #
                  #                        -***-                        #
                  #######################################################


                         Program Version 5.0.3 -  RELEASE  -


 With contributions from (in alphabetic order):
   Daniel Aravena         : Magnetic Suceptibility
   Michael Atanasov       : Ab Initio Ligand Field Theory (pilot matlab implementation)
   Alexander A. Auer      : GIAO ZORA, VPT2 properties, NMR spectrum
   Ute Becker             : Parallelization
   Giovanni Bistoni       : ED, misc. LED, open-shell LED, HFLD
   Martin Brehm           : Molecular dynamics
   Dmytro Bykov           : SCF Hessian
   Vijay G. Chilkuri      : MRCI spin determinant printing, contributions to CSF-ICE
   Dipayan Datta          : RHF DLPNO-CCSD density
   Achintya Kumar Dutta   : EOM-CC, STEOM-CC
   Dmitry Ganyushin       : Spin-Orbit,Spin-Spin,Magnetic field MRCI
   Miquel Garcia          : C-PCM and meta-GGA Hessian, CC/C-PCM, Gaussian charge scheme
   Yang Guo               : DLPNO-NEVPT2, F12-NEVPT2, CIM, IAO-localization
   Andreas Hansen         : Spin unrestricted coupled pair/coupled cluster methods
   Benjamin Helmich-Paris : MC-RPA, TRAH-SCF, COSX integrals
   Lee Huntington         : MR-EOM, pCC
   Robert Izsak           : Overlap fitted RIJCOSX, COSX-SCS-MP3, EOM
   Marcus Kettner         : VPT2
   Christian Kollmar      : KDIIS, OOCD, Brueckner-CCSD(T), CCSD density, CASPT2, CASPT2-K
   Simone Kossmann        : Meta GGA functionals, TD-DFT gradient, OOMP2, MP2 Hessian
   Martin Krupicka        : Initial AUTO-CI
   Lucas Lang             : DCDCAS
   Marvin Lechner         : AUTO-CI (C++ implementation), FIC-MRCC
   Dagmar Lenk            : GEPOL surface, SMD
   Dimitrios Liakos       : Extrapolation schemes; Compound Job, initial MDCI parallelization
   Dimitrios Manganas     : Further ROCIS development; embedding schemes
   Dimitrios Pantazis     : SARC Basis sets
   Anastasios Papadopoulos: AUTO-CI, single reference methods and gradients
   Taras Petrenko         : DFT Hessian,TD-DFT gradient, ASA, ECA, R-Raman, ABS, FL, XAS/XES, NRVS
   Peter Pinski           : DLPNO-MP2, DLPNO-MP2 Gradient
   Christoph Reimann      : Effective Core Potentials
   Marius Retegan         : Local ZFS, SOC
   Christoph Riplinger    : Optimizer, TS searches, QM/MM, DLPNO-CCSD(T), (RO)-DLPNO pert. Triples
   Tobias Risthaus        : Range-separated hybrids, TD-DFT gradient, RPA, STAB
   Michael Roemelt        : Original ROCIS implementation
   Masaaki Saitow         : Open-shell DLPNO-CCSD energy and density
   Barbara Sandhoefer     : DKH picture change effects
   Avijit Sen             : IP-ROCIS
   Kantharuban Sivalingam : CASSCF convergence, NEVPT2, FIC-MRCI
   Bernardo de Souza      : ESD, SOC TD-DFT
   Georgi Stoychev        : AutoAux, RI-MP2 NMR, DLPNO-MP2 response
   Willem Van den Heuvel  : Paramagnetic NMR
   Boris Wezisla          : Elementary symmetry handling
   Frank Wennmohs         : Technical directorship


 We gratefully acknowledge several colleagues who have allowed us to
 interface, adapt or use parts of their codes:
   Stefan Grimme, W. Hujo, H. Kruse, P. Pracht,  : VdW corrections, initial TS optimization,
                  C. Bannwarth, S. Ehlert          DFT functionals, gCP, sTDA/sTD-DF
   Ed Valeev, F. Pavosevic, A. Kumar             : LibInt (2-el integral package), F12 methods
   Garnet Chan, S. Sharma, J. Yang, R. Olivares  : DMRG
   Ulf Ekstrom                                   : XCFun DFT Library
   Mihaly Kallay                                 : mrcc  (arbitrary order and MRCC methods)
   Jiri Pittner, Ondrej Demel                    : Mk-CCSD
   Frank Weinhold                                : gennbo (NPA and NBO analysis)
   Christopher J. Cramer and Donald G. Truhlar   : smd solvation model
   Lars Goerigk                                  : TD-DFT with DH, B97 family of functionals
   V. Asgeirsson, H. Jonsson                     : NEB implementation
   FAccTs GmbH                                   : IRC, NEB, NEB-TS, DLPNO-Multilevel, CI-OPT
                                                   MM, QMMM, 2- and 3-layer-ONIOM, Crystal-QMMM,
                                                   LR-CPCM, SF, NACMEs, symmetry and pop. for TD-DFT,
                                                   nearIR, NL-DFT gradient (VV10), updates on ESD,
                                                   ML-optimized integration grids
   S Lehtola, MJT Oliveira, MAL Marques          : LibXC Library
   Liviu Ungur et al                             : ANISO software


 Your calculation uses the libint2 library for the computation of 2-el integrals
 For citations please refer to: http://libint.valeyev.net

 Your ORCA version has been built with support for libXC version: 5.1.0
 For citations please refer to: https://tddft.org/programs/libxc/

 This ORCA versions uses:
   CBLAS   interface :  Fast vector & matrix operations
   LAPACKE interface :  Fast linear algebra routines
   SCALAPACK package :  Parallel linear algebra routines
   Shared memory     :  Shared parallel matrices
   BLAS/LAPACK       :  OpenBLAS 0.3.15  USE64BITINT DYNAMIC_ARCH NO_AFFINITY Haswell SINGLE_THREADED
        Core in use  :  Haswell
   Copyright (c) 2011-2014, The OpenBLAS Project


================================================================================

----- Orbital basis set information -----
Your calculation utilizes the basis: 6-31G
   H-He, Li-Ne : W. J. Hehre, R. Ditchfield and J.A. Pople, J. Chem. Phys. 56, 2257 (1972).
                 Note: He and Ne are unpublished basis sets taken from the Gaussian program.
                 Note: Li and B from J. D. Dill and J. A. Pople, J. Chem. Phys. 62, 2921 (1975).
   Na - Ar     : M. M. Francl, W. J. Pietro, W. J. Hehre, J. S. Binkley, M. S. Gordon, 
                 D. J. DeFrees and J. A. Pople, J. Chem. Phys. 77, 3654 (1982).
   K - Zn      : V. A. Rassolov, J. A. Pople, M. A. Ratner, and T. L. Windus, J. Chem. Phys. 109, 1223 (1998).

----- AuxJ basis set information -----
Your calculation utilizes the auxiliary basis: def2/J
   F. Weigend, Phys. Chem. Chem. Phys. 8, 1057 (2006).

================================================================================
                                        WARNINGS
                       Please study these warnings very carefully!
================================================================================

INFO   : Checking CIS options ...

INFO   : the flag for use of the SHARK integral package has been found!

================================================================================
                                       INPUT FILE
================================================================================
NAME = acrolien.1126.com
|  1> ! B3LYP 6-31G
|  2> !TightSCF
|  3> %scf
|  4>  ConvForced true
|  5>  convergence tight
|  6>  MaxIter 500
|  7> end
|  8>  
|  9> %tddft 
| 10>  nroots 1
| 11> end
| 12> 
| 13> # 	21049
| 14> * xyz 0 1
| 15> 		C   -0.604635  -0.455015  -0.050507
| 16> 		O   -0.611083  -1.647880   0.017316
| 17> 		C    0.668278   0.379233   0.041467
| 18> 		C    1.894189  -0.062244  -0.019719
| 19> 		H   -1.540767   0.201545   0.067289
| 20> 		H    0.506393   1.496298  -0.026071
| 21> 		H    1.896995  -1.328809   0.013596
| 22> 		H    2.496486   0.675625   0.011874
| 23> *
| 24> 
| 25>                          ****END OF INPUT****
================================================================================

                       ****************************
                       * Single Point Calculation *
                       ****************************

---------------------------------
CARTESIAN COORDINATES (ANGSTROEM)
---------------------------------
  C     -0.604635   -0.455015   -0.050507
  O     -0.611083   -1.647880    0.017316
  C      0.668278    0.379233    0.041467
  C      1.894189   -0.062244   -0.019719
  H     -1.540767    0.201545    0.067289
  H      0.506393    1.496298   -0.026071
  H      1.896995   -1.328809    0.013596
  H      2.496486    0.675625    0.011874

----------------------------
CARTESIAN COORDINATES (A.U.)
----------------------------
  NO LB      ZA    FRAG     MASS         X           Y           Z
   0 C     6.0000    0    12.011   -1.142595   -0.859854   -0.095444
   1 O     8.0000    0    15.999   -1.154780   -3.114042    0.032722
   2 C     6.0000    0    12.011    1.262862    0.716647    0.078361
   3 C     6.0000    0    12.011    3.579498   -0.117624   -0.037264
   4 H     1.0000    0     1.008   -2.911628    0.380865    0.127158
   5 H     1.0000    0     1.008    0.956944    2.827593   -0.049267
   6 H     1.0000    0     1.008    3.584801   -2.511085    0.025693
   7 H     1.0000    0     1.008    4.717675    1.276746    0.022439

--------------------------------
INTERNAL COORDINATES (ANGSTROEM)
--------------------------------
 C      0   0   0     0.000000000000     0.00000000     0.00000000
 O      1   0   0     1.194808957222     0.00000000     0.00000000
 C      1   2   0     1.524708643561   123.18495323     0.00000000
 C      3   1   2     1.304416899632   126.62670132    12.10926436
 H      1   2   3     1.149473815552   124.05867227   195.62172350
 H      3   1   2     1.130753000834   114.67075311   180.79859692
 H      4   3   1     1.267006180761   109.82679692   351.10153424
 H      4   3   1     0.953000763388   109.29079139   176.63337513

---------------------------
INTERNAL COORDINATES (A.U.)
---------------------------
 C      0   0   0     0.000000000000     0.00000000     0.00000000
 O      1   0   0     2.257861711506     0.00000000     0.00000000
 C      1   2   0     2.881281770352   123.18495323     0.00000000
 C      3   1   2     2.464990704763   126.62670132    12.10926436
 H      1   2   3     2.172190709507   124.05867227   195.62172350
 H      3   1   2     2.136813496685   114.67075311   180.79859692
 H      4   3   1     2.394294691623   109.82679692   351.10153424
 H      4   3   1     1.800910448222   109.29079139   176.63337513

---------------------
BASIS SET INFORMATION
---------------------
There are 3 groups of distinct atoms

 Group   1 Type C   : 10s4p contracted to 3s2p pattern {631/31}
 Group   2 Type O   : 10s4p contracted to 3s2p pattern {631/31}
 Group   3 Type H   : 4s contracted to 2s pattern {31}

Atom   0C    basis set group =>   1
Atom   1O    basis set group =>   2
Atom   2C    basis set group =>   1
Atom   3C    basis set group =>   1
Atom   4H    basis set group =>   3
Atom   5H    basis set group =>   3
Atom   6H    basis set group =>   3
Atom   7H    basis set group =>   3
---------------------------------
AUXILIARY/J BASIS SET INFORMATION
---------------------------------
There are 3 groups of distinct atoms

 Group   1 Type C   : 12s5p4d2f1g contracted to 6s4p3d1f1g pattern {711111/2111/211/2/1}
 Group   2 Type O   : 12s5p4d2f1g contracted to 6s4p3d1f1g pattern {711111/2111/211/2/1}
 Group   3 Type H   : 5s2p1d contracted to 3s1p1d pattern {311/2/1}

Atom   0C    basis set group =>   1
Atom   1O    basis set group =>   2
Atom   2C    basis set group =>   1
Atom   3C    basis set group =>   1
Atom   4H    basis set group =>   3
Atom   5H    basis set group =>   3
Atom   6H    basis set group =>   3
Atom   7H    basis set group =>   3
------------------------------------------------------------------------------
                           ORCA GTO INTEGRAL CALCULATION
                           -- RI-GTO INTEGRALS CHOSEN --
------------------------------------------------------------------------------
------------------------------------------------------------------------------
                   ___                                                        
                  /   \      - P O W E R E D   B Y -                         
                 /     \                                                     
                 |  |  |   _    _      __       _____    __    __             
                 |  |  |  | |  | |    /  \     |  _  \  |  |  /  |          
                  \  \/   | |  | |   /    \    | | | |  |  | /  /          
                 / \  \   | |__| |  /  /\  \   | |_| |  |  |/  /          
                |  |  |   |  __  | /  /__\  \  |    /   |      \           
                |  |  |   | |  | | |   __   |  |    \   |  |\   \          
                \     /   | |  | | |  |  |  |  | |\  \  |  | \   \       
                 \___/    |_|  |_| |__|  |__|  |_| \__\ |__|  \__/        
                                                                              
                      - O R C A' S   B I G   F R I E N D -                    
                                      &                                       
                       - I N T E G R A L  F E E D E R -                       
                                                                              
 v1 FN, 2020, v2 2021                                                         
------------------------------------------------------------------------------


Reading SHARK input file acrolien.1126.SHARKINP.tmp ... ok
----------------------
SHARK INTEGRAL PACKAGE
----------------------

Number of atoms                             ...      8
Number of basis functions                   ...     44
Number of shells                            ...     28
Maximum angular momentum                    ...      1
Integral batch strategy                     ... SHARK/LIBINT Hybrid
RI-J (if used) integral strategy            ... SPLIT-RIJ (Revised 2003 algorithm where possible)
Printlevel                                  ...      1
Contraction scheme used                     ... SEGMENTED contraction
Coulomb Range Separation                    ... NOT USED
Exchange Range Separation                   ... NOT USED
Finite Nucleus Model                        ... NOT USED
Auxiliary Coulomb fitting basis             ... AVAILABLE
   # of basis functions in Aux-J            ...    240
   # of shells in Aux-J                     ...     80
   Maximum angular momentum in Aux-J        ...      4
Auxiliary J/K fitting basis                 ... NOT available
Auxiliary Correlation fitting basis         ... NOT available
Auxiliary 'external' fitting basis          ... NOT available
Integral threshold                          ...     2.500000e-11
Primitive cut-off                           ...     2.500000e-12
Primitive pair pre-selection threshold      ...     2.500000e-12

Calculating pre-screening integrals         ... done (  0.0 sec) Dimension = 28
Organizing shell pair data                  ... done (  0.1 sec)
Shell pair information
Total number of shell pairs                 ...       406
Shell pairs after pre-screening             ...       402
Total number of primitive shell pairs       ...      2724
Primitive shell pairs kept                  ...      2012
          la=0 lb=0:    206 shell pairs
          la=1 lb=0:    160 shell pairs
          la=1 lb=1:     36 shell pairs

Calculating one electron integrals          ... done (  0.0 sec)
Calculating RI/J V-Matrix + Cholesky decomp.... done (  0.1 sec)
Calculating Nuclear repulsion               ... done (  0.0 sec) ENN=    104.365075187956 Eh

SHARK setup successfully completed in   1.2 seconds

Maximum memory used throughout the entire GTOINT-calculation: 8.3 MB
-------------------------------------------------------------------------------
                                 ORCA SCF
-------------------------------------------------------------------------------

------------
SCF SETTINGS
------------
Hamiltonian:
 Density Functional     Method          .... DFT(GTOs)
 Exchange Functional    Exchange        .... B88
   X-Alpha parameter    XAlpha          ....  0.666667
   Becke's b parameter  XBeta           ....  0.004200
 Correlation Functional Correlation     .... LYP
 LDA part of GGA corr.  LDAOpt          .... VWN-5
 Gradients option       PostSCFGGA      .... off
 Hybrid DFT is turned on
   Fraction HF Exchange ScalHFX         ....  0.200000
   Scaling of DF-GGA-X  ScalDFX         ....  0.720000
   Scaling of DF-GGA-C  ScalDFC         ....  0.810000
   Scaling of DF-LDA-C  ScalLDAC        ....  1.000000
   Perturbative correction              ....  0.000000
   Density functional embedding theory  .... OFF
   NL short-range parameter             ....  4.800000
 RI-approximation to the Coulomb term is turned on
   Number of AuxJ basis functions       .... 240
   RIJ-COSX (HFX calculated with COS-X)).... on


General Settings:
 Integral files         IntName         .... acrolien.1126
 Hartree-Fock type      HFTyp           .... RHF
 Total Charge           Charge          ....    0
 Multiplicity           Mult            ....    1
 Number of Electrons    NEL             ....   30
 Basis Dimension        Dim             ....   44
 Nuclear Repulsion      ENuc            ....    104.3650751880 Eh

Convergence Acceleration:
 DIIS                   CNVDIIS         .... on
   Start iteration      DIISMaxIt       ....    12
   Startup error        DIISStart       ....  0.200000
   # of expansion vecs  DIISMaxEq       ....     5
   Bias factor          DIISBfac        ....   1.050
   Max. coefficient     DIISMaxC        ....  10.000
 Trust-Rad. Augm. Hess. CNVTRAH         .... auto
   Auto Start mean grad. ratio tolernc. ....  1.125000
   Auto Start start iteration           ....    20
   Auto Start num. interpolation iter.  ....    10
   Max. Number of Micro iterations      ....    16
   Max. Number of Macro iterations      .... Maxiter - #DIIS iter
   Number of Davidson start vectors     ....     2
   Converg. threshold I  (grad. norm)   ....   1.000e-05
   Converg. threshold II (energy diff.) ....   1.000e-08
   Grad. Scal. Fac. for Micro threshold ....   0.100
   Minimum threshold for Micro iter.    ....   0.010
   NR start threshold (gradient norm)   ....   0.001
   Initial trust radius                 ....   0.400
   Minimum AH scaling param. (alpha)    ....   1.000
   Maximum AH scaling param. (alpha)    .... 1000.000
   Orbital update algorithm             .... Taylor
   White noise on init. David. guess    .... on
   Maximum white noise                  ....   0.010
   Quad. conv. algorithm                .... NR
 SOSCF                  CNVSOSCF        .... on
   Start iteration      SOSCFMaxIt      ....   150
   Startup grad/error   SOSCFStart      ....  0.003300
 Level Shifting         CNVShift        .... on
   Level shift para.    LevelShift      ....    0.2500
   Turn off err/grad.   ShiftErr        ....    0.0010
 Zerner damping         CNVZerner       .... off
 Static damping         CNVDamp         .... on
   Fraction old density DampFac         ....    0.7000
   Max. Damping (<1)    DampMax         ....    0.9800
   Min. Damping (>=0)   DampMin         ....    0.0000
   Turn off err/grad.   DampErr         ....    0.1000
 Fernandez-Rico         CNVRico         .... off

SCF Procedure:
 Maximum # iterations   MaxIter         ....   500
 SCF integral mode      SCFMode         .... Direct
   Integral package                     .... SHARK and LIBINT hybrid scheme
 Reset frequency        DirectResetFreq ....    20
 Integral Threshold     Thresh          ....  2.500e-11 Eh
 Primitive CutOff       TCut            ....  2.500e-12 Eh

Convergence Tolerance:
 Convergence Check Mode ConvCheckMode   .... Total+1el-Energy
 Convergence forced     ConvForced      .... 1
 Energy Change          TolE            ....  1.000e-08 Eh
 1-El. energy change                    ....  1.000e-05 Eh
 Orbital Gradient       TolG            ....  1.000e-05
 Orbital Rotation angle TolX            ....  1.000e-05
 DIIS Error             TolErr          ....  5.000e-07


Diagonalization of the overlap matrix:
Smallest eigenvalue                        ... 4.792e-03
Time for diagonalization                   ...    0.054 sec
Threshold for overlap eigenvalues          ... 1.000e-08
Number of eigenvalues below threshold      ... 0
Time for construction of square roots      ...    0.069 sec
Total time needed                          ...    0.124 sec

Time for model grid setup =    0.183 sec

------------------------------
INITIAL GUESS: MODEL POTENTIAL
------------------------------
Loading Hartree-Fock densities                     ... done
Calculating cut-offs                               ... done
Initializing the effective Hamiltonian             ... done
Setting up the integral package (SHARK)            ... done
Starting the Coulomb interaction                   ... done (   1.2 sec)
Reading the grid                                   ... done
Mapping shells                                     ... done
Starting the XC term evaluation                    ... done (   0.0 sec)
  promolecular density results
     # of electrons  =     30.000463975
     EX              =    -24.740770525
     EC              =     -0.995795657
     EX+EC           =    -25.736566181
Transforming the Hamiltonian                       ... done (   0.5 sec)
Diagonalizing the Hamiltonian                      ... done (   0.0 sec)
Back transforming the eigenvectors                 ... done (   0.0 sec)
Now organizing SCF variables                       ... done
                      ------------------
                      INITIAL GUESS DONE (   2.2 sec)
                      ------------------
-------------------
DFT GRID GENERATION
-------------------

General Integration Accuracy     IntAcc      ... 4.388
Radial Grid Type                 RadialGrid  ... OptM3 with GC (2021)
Angular Grid (max. ang.)         AngularGrid ... 4 (Lebedev-302)
Angular grid pruning method      GridPruning ... 4 (adaptive)
Weight generation scheme         WeightScheme... Becke
Basis function cutoff            BFCut       ... 1.0000e-11
Integration weight cutoff        WCut        ... 1.0000e-14
Angular grids for H and He will be reduced by one unit
Partially contracted basis set               ... off
Rotationally invariant grid construction     ... off

Total number of grid points                  ...    37370
Total number of batches                      ...      588
Average number of points per batch           ...       63
Average number of grid points per atom       ...     4671
Time for grid setup =    0.605 sec

--------------------
COSX GRID GENERATION
--------------------

GRIDX 1
-------
General Integration Accuracy     IntAcc      ... 3.816
Radial Grid Type                 RadialGrid  ... OptM3 with GC (2021)
Angular Grid (max. ang.)         AngularGrid ... 1 (Lebedev-50)
Angular grid pruning method      GridPruning ... 4 (adaptive)
Weight generation scheme         WeightScheme... Becke
Basis function cutoff            BFCut       ... 1.0000e-11
Integration weight cutoff        WCut        ... 1.0000e-14
Angular grids for H and He will be reduced by one unit
Partially contracted basis set               ... on
Rotationally invariant grid construction     ... off

Total number of grid points                  ...     4787
Total number of batches                      ...       78
Average number of points per batch           ...       61
Average number of grid points per atom       ...      598
UseSFitting                                  ... on

GRIDX 2
-------
General Integration Accuracy     IntAcc      ... 4.020
Radial Grid Type                 RadialGrid  ... OptM3 with GC (2021)
Angular Grid (max. ang.)         AngularGrid ... 2 (Lebedev-110)
Angular grid pruning method      GridPruning ... 4 (adaptive)
Weight generation scheme         WeightScheme... Becke
Basis function cutoff            BFCut       ... 1.0000e-11
Integration weight cutoff        WCut        ... 1.0000e-14
Angular grids for H and He will be reduced by one unit
Partially contracted basis set               ... on
Rotationally invariant grid construction     ... off

Total number of grid points                  ...    10544
Total number of batches                      ...      168
Average number of points per batch           ...       62
Average number of grid points per atom       ...     1318
UseSFitting                                  ... on

GRIDX 3
-------
General Integration Accuracy     IntAcc      ... 4.338
Radial Grid Type                 RadialGrid  ... OptM3 with GC (2021)
Angular Grid (max. ang.)         AngularGrid ... 3 (Lebedev-194)
Angular grid pruning method      GridPruning ... 4 (adaptive)
Weight generation scheme         WeightScheme... Becke
Basis function cutoff            BFCut       ... 1.0000e-11
Integration weight cutoff        WCut        ... 1.0000e-14
Angular grids for H and He will be reduced by one unit
Partially contracted basis set               ... on
Rotationally invariant grid construction     ... off

Total number of grid points                  ...    23267
Total number of batches                      ...      367
Average number of points per batch           ...       63
Average number of grid points per atom       ...     2908
UseSFitting                                  ... on

Time for X-Grid setup             =    1.248 sec

--------------
SCF ITERATIONS
--------------
ITER       Energy         Delta-E        Max-DP      RMS-DP      [F,P]     Damp
               ***  Starting incremental Fock matrix formation  ***
  0   -191.5503931574   0.000000000000 0.09975855  0.00729243  0.2653971 0.7000
  1   -191.6175880685  -0.067194911116 0.05725455  0.00447091  0.0967143 0.7000
                               ***Turning on DIIS***
  2   -191.6397384754  -0.022150406888 0.06339126  0.00620224  0.0356333 0.0000
  3   -191.6798497026  -0.040111227274 0.03728186  0.00323539  0.0471896 0.0000
  4   -191.6865871524  -0.006737449795 0.01049014  0.00115406  0.0239261 0.0000
                      *** Initiating the SOSCF procedure ***
                           *** Shutting down DIIS ***
                      *** Re-Reading the Fockian *** 
                      *** Removing any level shift *** 
ITER      Energy       Delta-E        Grad      Rot      Max-DP    RMS-DP
  5   -191.68764939  -0.0010622403  0.000714  0.000714  0.004208  0.000338
               *** Restarting incremental Fock matrix formation ***
  6   -191.68770772  -0.0000583240  0.000442  0.001935  0.001765  0.000168
  7   -191.68770624   0.0000014806  0.000702  0.001034  0.001101  0.000094
  8   -191.68771057  -0.0000043360  0.000152  0.000337  0.000475  0.000042
  9   -191.68771035   0.0000002271  0.000203  0.000213  0.000276  0.000022
 10   -191.68771079  -0.0000004427  0.000044  0.000117  0.000154  0.000010
 11   -191.68771077   0.0000000211  0.000067  0.000071  0.000098  0.000006
                  ***Gradient check signals convergence***
              ***Rediagonalizing the Fockian in SOSCF/NRSCF***

               *****************************************************
               *                     SUCCESS                       *
               *           SCF CONVERGED AFTER  12 CYCLES          *
               *****************************************************

Old exchange energy                            =     -5.016368209 Eh
New exchange energy                            =     -5.016354477 Eh
Exchange energy change after final integration =      0.000013732 Eh
Total energy after final integration           =   -191.687697068 Eh
Final COS-X integration done in                =     0.799 sec

----------------
TOTAL SCF ENERGY
----------------

Total Energy       :         -191.68769707 Eh           -5216.08742 eV

Components:
Nuclear Repulsion  :          104.36507519 Eh            2839.91807 eV
Electronic Energy  :         -296.05277226 Eh           -8056.00549 eV
One Electron Energy:         -465.60699247 Eh          -12669.81039 eV
Two Electron Energy:          169.55422022 Eh            4613.80489 eV
Max COSX asymmetry :            0.00000107 Eh               0.00003 eV

Virial components:
Potential Energy   :         -382.58536060 Eh          -10410.67693 eV
Kinetic Energy     :          190.89766353 Eh            5194.58951 eV
Virial Ratio       :            2.00413852


DFT components:
N(Alpha)           :       15.000008619619 electrons
N(Beta)            :       15.000008619619 electrons
N(Total)           :       30.000017239238 electrons
E(X)               :      -19.973513901923 Eh       
E(C)               :       -1.182765125154 Eh       
E(XC)              :      -21.156279027077 Eh       
DFET-embed. en.    :        0.000000000000 Eh       

---------------
SCF CONVERGENCE
---------------

  Last Energy change         ...   -3.3299e-08  Tolerance :   1.0000e-08
  Last MAX-Density change    ...    3.9968e-15  Tolerance :   1.0000e-07
  Last RMS-Density change    ...    1.3155e-16  Tolerance :   5.0000e-09
  Last Orbital Gradient      ...    5.6974e-07  Tolerance :   1.0000e-05
  Last Orbital Rotation      ...    1.1358e-06  Tolerance :   1.0000e-05

             **** THE GBW FILE WAS UPDATED (acrolien.1126.gbw) ****
             **** DENSITY acrolien.1126.scfp WAS UPDATED ****
             **** ENERGY FILE WAS UPDATED (acrolien.1126.en.tmp) ****
             **** THE GBW FILE WAS UPDATED (acrolien.1126.gbw) ****
             **** DENSITY acrolien.1126.scfp WAS UPDATED ****
----------------
ORBITAL ENERGIES
----------------

  NO   OCC          E(Eh)            E(eV) 
   0   2.0000     -19.159441      -521.3549 
   1   2.0000     -10.286556      -279.9114 
   2   2.0000     -10.202853      -277.6337 
   3   2.0000     -10.199099      -277.5316 
   4   2.0000      -1.086877       -29.5754 
   5   2.0000      -0.807561       -21.9749 
   6   2.0000      -0.657245       -17.8845 
   7   2.0000      -0.536606       -14.6018 
   8   2.0000      -0.509397       -13.8614 
   9   2.0000      -0.443254       -12.0616 
  10   2.0000      -0.436256       -11.8711 
  11   2.0000      -0.412173       -11.2158 
  12   2.0000      -0.366366        -9.9693 
  13   2.0000      -0.293688        -7.9917 
  14   2.0000      -0.260045        -7.0762 
  15   0.0000      -0.064816        -1.7637 
  16   0.0000       0.063424         1.7258 
  17   0.0000       0.080184         2.1819 
  18   0.0000       0.101925         2.7735 
  19   0.0000       0.144963         3.9446 
  20   0.0000       0.205627         5.5954 
  21   0.0000       0.258973         7.0470 
  22   0.0000       0.312150         8.4940 
  23   0.0000       0.323055         8.7908 
  24   0.0000       0.508928        13.8486 
  25   0.0000       0.528829        14.3902 
  26   0.0000       0.579310        15.7638 
  27   0.0000       0.618996        16.8437 
  28   0.0000       0.650399        17.6983 
  29   0.0000       0.670201        18.2371 
  30   0.0000       0.710957        19.3461 
  31   0.0000       0.756784        20.5931 
  32   0.0000       0.790975        21.5235 
  33   0.0000       0.803391        21.8614 
  34   0.0000       0.852402        23.1950 
  35   0.0000       0.914583        24.8871 
  36   0.0000       0.973039        26.4777 
  37   0.0000       0.997085        27.1321 
  38   0.0000       1.025839        27.9145 
  39   0.0000       1.127702        30.6863 
  40   0.0000       1.167607        31.7722 
  41   0.0000       1.186621        32.2896 
  42   0.0000       1.313073        35.7305 
  43   0.0000       1.771577        48.2071 

                    ********************************
                    * MULLIKEN POPULATION ANALYSIS *
                    ********************************

-----------------------
MULLIKEN ATOMIC CHARGES
-----------------------
   0 C :    0.201406
   1 O :   -0.358453
   2 C :   -0.154725
   3 C :   -0.208194
   4 H :    0.101738
   5 H :    0.125798
   6 H :    0.178854
   7 H :    0.113576
Sum of atomic charges:   -0.0000000

--------------------------------
MULLIKEN REDUCED ORBITAL CHARGES
--------------------------------
  0 C s       :     3.185982  s :     3.185982
      pz      :     0.783008  p :     2.612611
      px      :     1.030707
      py      :     0.798897
  1 O s       :     3.939176  s :     3.939176
      pz      :     1.287251  p :     4.419276
      px      :     1.797275
      py      :     1.334751
  2 C s       :     3.214588  s :     3.214588
      pz      :     1.018348  p :     2.940137
      px      :     0.928349
      py      :     0.993440
  3 C s       :     3.259181  s :     3.259181
      pz      :     0.907929  p :     2.949013
      px      :     1.007374
      py      :     1.033711
  4 H s       :     0.898262  s :     0.898262
  5 H s       :     0.874202  s :     0.874202
  6 H s       :     0.821146  s :     0.821146
  7 H s       :     0.886424  s :     0.886424


                     *******************************
                     * LOEWDIN POPULATION ANALYSIS *
                     *******************************

----------------------
LOEWDIN ATOMIC CHARGES
----------------------
   0 C :    0.116746
   1 O :   -0.212196
   2 C :   -0.191317
   3 C :   -0.172244
   4 H :    0.071367
   5 H :    0.108946
   6 H :    0.153026
   7 H :    0.125673

-------------------------------
LOEWDIN REDUCED ORBITAL CHARGES
-------------------------------
  0 C s       :     2.988686  s :     2.988686
      pz      :     0.785515  p :     2.894568
      px      :     1.084428
      py      :     1.024626
  1 O s       :     3.621477  s :     3.621477
      pz      :     1.286910  p :     4.590720
      px      :     1.836691
      py      :     1.467119
  2 C s       :     2.992200  s :     2.992200
      pz      :     1.010639  p :     3.199117
      px      :     1.109882
      py      :     1.078595
  3 C s       :     3.000270  s :     3.000270
      pz      :     0.913794  p :     3.171974
      px      :     1.136839
      py      :     1.121340
  4 H s       :     0.928633  s :     0.928633
  5 H s       :     0.891054  s :     0.891054
  6 H s       :     0.846974  s :     0.846974
  7 H s       :     0.874327  s :     0.874327


                      *****************************
                      * MAYER POPULATION ANALYSIS *
                      *****************************

  NA   - Mulliken gross atomic population
  ZA   - Total nuclear charge
  QA   - Mulliken gross atomic charge
  VA   - Mayer's total valence
  BVA  - Mayer's bonded valence
  FA   - Mayer's free valence

  ATOM       NA         ZA         QA         VA         BVA        FA
  0 C      5.7986     6.0000     0.2014     3.7235     3.7235    -0.0000
  1 O      8.3585     8.0000    -0.3585     2.0466     2.0466    -0.0000
  2 C      6.1547     6.0000    -0.1547     3.7642     3.7642    -0.0000
  3 C      6.2082     6.0000    -0.2082     3.8399     3.8399    -0.0000
  4 H      0.8983     1.0000     0.1017     0.9329     0.9329    -0.0000
  5 H      0.8742     1.0000     0.1258     0.9446     0.9446    -0.0000
  6 H      0.8211     1.0000     0.1789     0.9515     0.9515    -0.0000
  7 H      0.8864     1.0000     0.1136     0.9630     0.9630    -0.0000

  Mayer bond orders larger than 0.100000
B(  0-C ,  1-O ) :   1.8725 B(  0-C ,  2-C ) :   0.9617 B(  0-C ,  4-H ) :   0.8661 
B(  2-C ,  3-C ) :   1.8846 B(  2-C ,  5-H ) :   0.9323 B(  3-C ,  6-H ) :   0.9235 
B(  3-C ,  7-H ) :   0.9536 

-------
TIMINGS
-------

Total SCF time: 0 days 0 hours 0 min 47 sec 

Total time                  ....      47.278 sec
Sum of individual times     ....      36.131 sec  ( 76.4%)

Fock matrix formation       ....      32.035 sec  ( 67.8%)
  Split-RI-J                ....       0.590 sec  (  1.8% of F)
  Chain of spheres X        ....       4.501 sec  ( 14.1% of F)
  XC integration            ....      12.593 sec  ( 39.3% of F)
    Basis function eval.    ....       0.927 sec  (  7.4% of XC)
    Density eval.           ....       0.468 sec  (  3.7% of XC)
    XC-Functional eval.     ....       0.588 sec  (  4.7% of XC)
    XC-Potential eval.      ....       0.241 sec  (  1.9% of XC)
Diagonalization             ....       0.003 sec  (  0.0%)
Density matrix formation    ....       0.000 sec  (  0.0%)
Population analysis         ....       0.004 sec  (  0.0%)
Initial guess               ....       2.034 sec  (  4.3%)
Orbital Transformation      ....       0.000 sec  (  0.0%)
Orbital Orthonormalization  ....       0.000 sec  (  0.0%)
DIIS solution               ....       0.001 sec  (  0.0%)
SOSCF solution              ....       0.017 sec  (  0.0%)
Grid generation             ....       2.036 sec  (  4.3%)

Maximum memory used throughout the entire SCF-calculation: 46.8 MB
------------------------------------------------------------------------------
                        ORCA TD-DFT/TDA CALCULATION
------------------------------------------------------------------------------

Input orbitals are from        ... acrolien.1126.gbw
CI-vector output               ... acrolien.1126.cis
Tamm-Dancoff approximation     ... operative
CIS-Integral strategy          ... AO-integrals
Integral handling              ... AO integral Direct
Max. core memory used          ... 512 MB
Reference state                ... RHF
Generation of triplets         ... off
Follow IRoot                   ... off
Number of operators            ... 1
Orbital ranges used for CIS calculation:
 Operator 0:  Orbitals   4... 14  to  15... 43
XAS localization array:
 Operator 0:  Orbitals  -1... -1

-------------------
XC-INTEGRATION GRID
-------------------

General Integration Accuracy     IntAcc      ... 3.467
Radial Grid Type                 RadialGrid  ... OptM3 with GC (2021)
Angular Grid (max. ang.)         AngularGrid ... 1 (Lebedev-50)
Angular grid pruning method      GridPruning ... 4 (adaptive)
Weight generation scheme         WeightScheme... Becke
Basis function cutoff            BFCut       ... 1.0000e-11
Integration weight cutoff        WCut        ... 1.0000e-14
Angular grids for H and He will be reduced by one unit
Partially contracted basis set               ... off
Rotationally invariant grid construction     ... off

Total number of grid points                  ...     5480
Total number of batches                      ...       91
Average number of points per batch           ...       60
Average number of grid points per atom       ...      685

---------------------
COSX-INTEGRATION GRID
---------------------

General Integration Accuracy     IntAcc      ... 3.067
Radial Grid Type                 RadialGrid  ... OptM3 with GC (2021)
Angular Grid (max. ang.)         AngularGrid ... 1 (Lebedev-50)
Angular grid pruning method      GridPruning ... 4 (adaptive)
Weight generation scheme         WeightScheme... Becke
Basis function cutoff            BFCut       ... 1.0000e-11
Integration weight cutoff        WCut        ... 1.0000e-14
Angular grids for H and He will be reduced by one unit
Partially contracted basis set               ... on
Rotationally invariant grid construction     ... off

Total number of grid points                  ...     2501
Total number of batches                      ...       45
Average number of points per batch           ...       55
Average number of grid points per atom       ...      313

---------------
TD-DFT XC SETUP
---------------

DFT calculation                         ... on
Name of the grid file                   ... acrolien.1126.grid_cis.tmp
Exchange functional (TD-DFT)            ... B88
   X-Alpha parameter    XAlpha (TD-DFT) ...  0.666667
   Becke's b parameter  XBeta (TD-DFT)  ...  0.004200
Correlation functional (TD-DFT)         ... LYP
 LDA part of GGA corr.  LDAOpt (TD-DFT) ... VWN-5
Hybrid DFT                              ... on
   Exchange mixing (TD-DFT)             ...  0.200
   GGA exch. scaling (TD-DFT)           ...  0.720
   GGA corr. scaling (TD-DFT)           ...  0.810

Building densities             ... done
Calculating rho(r) on the grid ... done
Building xc-kernel on the grid ... done
                    *** TD-DFT CALCULATION INITIALIZED ***

------------------------
DAVIDSON-DIAGONALIZATION
------------------------

Dimension of the eigenvalue problem            ...    319
Number of roots to be determined               ...      1
Maximum size of the expansion space            ...     10
Maximum number of iterations                   ...    100
Convergence tolerance for the residual         ...    2.500e-07
Convergence tolerance for the energies         ...    2.500e-07
Orthogonality tolerance                        ...    1.000e-14
Level Shift                                    ...    0.000e+00
Constructing the preconditioner                ... o.k.
Building the initial guess                     ... o.k.
Number of trial vectors determined             ...     10


                       ****Iteration    0****

   Memory handling for direct AO based CIS:
   Memory per vector needed      ...     1 MB
   Memory needed                 ...     0 MB
   Memory available              ...   512 MB
   Number of vectors per batch   ...   512
   Number of batches             ...     1
   Time for densities:            0.000
   Time for RI-J (Direct):        0.043
   Time for K (COSX):             0.118
   Time for XC-Integration:       0.039
   Time for Sigma-Completion:     0.000
   Size of expansion space: 3
   Lowest Energy          :     0.137167044322
   Maximum Energy change  :     0.137167044322 (vector 0)
   Maximum residual norm  :     0.000860536172

                       ****Iteration    1****
   Time for densities:            0.000
   Time for RI-J (Direct):        0.034
   Time for K (COSX):             1.025
   Time for XC-Integration:       0.022
   Time for Sigma-Completion:     0.000
   Size of expansion space: 4
   Lowest Energy          :     0.134723015183
   Maximum Energy change  :     0.002444029138 (vector 0)
   Maximum residual norm  :     0.000189023402

                       ****Iteration    2****
   Time for densities:            0.000
   Time for RI-J (Direct):        0.036
   Time for K (COSX):             0.969
   Time for XC-Integration:       0.022
   Time for Sigma-Completion:     0.000
   Size of expansion space: 5
   Lowest Energy          :     0.134499677455
   Maximum Energy change  :     0.000223337728 (vector 0)
   Maximum residual norm  :     0.000020371384

                       ****Iteration    3****
   Time for densities:            0.000
   Time for RI-J (Direct):        0.036
   Time for K (COSX):             0.344
   Time for XC-Integration:       0.023
   Time for Sigma-Completion:     0.000
   Size of expansion space: 6
   Lowest Energy          :     0.134475176753
   Maximum Energy change  :     0.000024500702 (vector 0)
   Maximum residual norm  :     0.000002425187

                       ****Iteration    4****
   Time for densities:            0.000
   Time for RI-J (Direct):        0.034
   Time for K (COSX):             0.108
   Time for XC-Integration:       0.023
   Time for Sigma-Completion:     0.000
   Size of expansion space: 7
   Lowest Energy          :     0.134472018663
   Maximum Energy change  :     0.000003158090 (vector 0)
   Maximum residual norm  :     0.000000072681

      *** CONVERGENCE OF RESIDUAL NORM REACHED ***

Storing the converged CI vectors               ... acrolien.1126.cis1

                 *** DAVIDSON DONE ***

Total time for solving the CIS problem:     4.410sec

------------------------------------
TD-DFT/TDA EXCITED STATES (SINGLETS)
------------------------------------

the weight of the individual excitations are printed if larger than 1.0e-02

STATE  1:  E=   0.134472 au      3.659 eV    29513.2 cm**-1 <S**2> =   0.000000
    14a ->  15a  :     0.984666 (c=  0.99230317)
    14a ->  16a  :     0.011277 (c= -0.10619199)


-----------------------------
TD-DFT/TDA-EXCITATION SPECTRA
-----------------------------

Center of mass = (  0.5772, -0.9090, -0.0000)
Calculating the Dipole integrals                  ... done
Transforming integrals                            ... done
Calculating the Linear Momentum integrals         ... done
Transforming integrals                            ... done
Calculating angular momentum integrals            ... done
Transforming integrals                            ... done

-----------------------------------------------------------------------------
         ABSORPTION SPECTRUM VIA TRANSITION ELECTRIC DIPOLE MOMENTS
-----------------------------------------------------------------------------
State   Energy    Wavelength  fosc         T2        TX        TY        TZ  
        (cm-1)      (nm)                 (au**2)    (au)      (au)      (au) 
-----------------------------------------------------------------------------
   1   29513.2    338.8   0.000637399   0.00711   0.07452  -0.00454  -0.03920

-----------------------------------------------------------------------------
         ABSORPTION SPECTRUM VIA TRANSITION VELOCITY DIPOLE MOMENTS
-----------------------------------------------------------------------------
State   Energy    Wavelength   fosc        P2         PX        PY        PZ  
        (cm-1)      (nm)                 (au**2)     (au)      (au)      (au) 
-----------------------------------------------------------------------------
   1   29513.2    338.8   0.000470996   0.00010  -0.00245  -0.00099   0.00938

-------------------------------------------------------------------
                             CD SPECTRUM
-------------------------------------------------------------------
State  Energy     Wavelength     R         MX        MY        MZ   
       (cm-1)       (nm)     (1e40*cgs)   (au)      (au)      (au)  
-------------------------------------------------------------------
   1   29513.2    338.8     -0.78223  -0.03825  -0.38028   0.01371

-------------------------------------------------------------------
         CD SPECTRUM VIA TRANSITION VELOCITY DIPOLE MOMENTS        
-------------------------------------------------------------------
State  Energy     Wavelength     R         MX        MY        MZ   
       (cm-1)       (nm)     (1e40*cgs)   (au)      (au)      (au)  
-------------------------------------------------------------------
   1   29513.2    338.8      2.09764  -0.03825  -0.38028   0.01371

Total run time:        8.853 sec

           *** ORCA-CIS/TD-DFT FINISHED WITHOUT ERROR ***

Maximum memory used throughout the entire CIS-calculation: 42.9 MB

-----------------------
CIS/TD-DFT TOTAL ENERGY
-----------------------

    E(SCF)  =   -191.687697068 Eh
    DE(CIS) =      0.134472019 Eh (Root  1)
    ----------------------------- ---------
    E(tot)  =   -191.553225049 Eh


-------------------------   --------------------
FINAL SINGLE POINT ENERGY      -191.553225049116
-------------------------   --------------------


                            ***************************************
                            *     ORCA property calculations      *
                            ***************************************

                                    ---------------------
                                    Active property flags
                                    ---------------------
   (+) Dipole Moment


------------------------------------------------------------------------------
                       ORCA ELECTRIC PROPERTIES CALCULATION
------------------------------------------------------------------------------

Dipole Moment Calculation                       ... on
Quadrupole Moment Calculation                   ... off
Polarizability Calculation                      ... off
GBWName                                         ... acrolien.1126.gbw
Electron density                                ... acrolien.1126.scfp
The origin for moment calculation is the CENTER OF MASS  = ( 0.577218, -0.909041 -0.000039)

-------------
DIPOLE MOMENT
-------------
                                X             Y             Z
Electronic contribution:     -1.65242      -1.79453      -0.09579
Nuclear contribution   :      1.99161       2.76803       0.06290
                        -----------------------------------------
Total Dipole Moment    :      0.33920       0.97351      -0.03289
                        -----------------------------------------
Magnitude (a.u.)       :      1.03143
Magnitude (Debye)      :      2.62170



--------------------
Rotational spectrum 
--------------------
 
Rotational constants in cm-1:     0.806050     0.199160     0.159902 
Rotational constants in MHz : 24164.764495  5970.654702  4793.726942 

 Dipole components along the rotational axes: 
x,y,z [a.u.] :     0.809409     0.638489    -0.032309 
x,y,z [Debye]:     2.057355     1.622909    -0.082122 

 

Timings for individual modules:

Sum of individual times         ...       58.621 sec (=   0.977 min)
GTO integral calculation        ...        1.685 sec (=   0.028 min)   2.9 %
SCF iterations                  ...       47.763 sec (=   0.796 min)  81.5 %
CIS module                      ...        9.173 sec (=   0.153 min)  15.6 %
                             ****ORCA TERMINATED NORMALLY****
TOTAL RUN TIME: 0 days 0 hours 0 minutes 59 seconds 355 msec
