
                                 *****************
                                 * O   R   C   A *
                                 *****************

                                            #,                                       
                                            ###                                      
                                            ####                                     
                                            #####                                    
                                            ######                                   
                                           ########,                                 
                                     ,,################,,,,,                         
                               ,,#################################,,                 
                          ,,##########################################,,             
                       ,#########################################, ''#####,          
                    ,#############################################,,   '####,        
                  ,##################################################,,,,####,       
                ,###########''''           ''''###############################       
              ,#####''   ,,,,##########,,,,          '''####'''          '####       
            ,##' ,,,,###########################,,,                        '##       
           ' ,,###''''                  '''############,,,                           
         ,,##''                                '''############,,,,        ,,,,,,###''
      ,#''                                            '''#######################'''  
     '                                                          ''''####''''         
             ,#######,   #######,   ,#######,      ##                                
            ,#'     '#,  ##    ##  ,#'     '#,    #''#        ######   ,####,        
            ##       ##  ##   ,#'  ##            #'  '#       #        #'  '#        
            ##       ##  #######   ##           ,######,      #####,   #    #        
            '#,     ,#'  ##    ##  '#,     ,#' ,#      #,         ##   #,  ,#        
             '#######'   ##     ##  '#######'  #'      '#     #####' # '####'        



                  #######################################################
                  #                        -***-                        #
                  #          Department of theory and spectroscopy      #
                  #    Directorship and core code : Frank Neese         #
                  #        Max Planck Institute fuer Kohlenforschung    #
                  #                Kaiser Wilhelm Platz 1               #
                  #                 D-45470 Muelheim/Ruhr               #
                  #                      Germany                        #
                  #                                                     #
                  #                  All rights reserved                #
                  #                        -***-                        #
                  #######################################################


                         Program Version 5.0.3 -  RELEASE  -


 With contributions from (in alphabetic order):
   Daniel Aravena         : Magnetic Suceptibility
   Michael Atanasov       : Ab Initio Ligand Field Theory (pilot matlab implementation)
   Alexander A. Auer      : GIAO ZORA, VPT2 properties, NMR spectrum
   Ute Becker             : Parallelization
   Giovanni Bistoni       : ED, misc. LED, open-shell LED, HFLD
   Martin Brehm           : Molecular dynamics
   Dmytro Bykov           : SCF Hessian
   Vijay G. Chilkuri      : MRCI spin determinant printing, contributions to CSF-ICE
   Dipayan Datta          : RHF DLPNO-CCSD density
   Achintya Kumar Dutta   : EOM-CC, STEOM-CC
   Dmitry Ganyushin       : Spin-Orbit,Spin-Spin,Magnetic field MRCI
   Miquel Garcia          : C-PCM and meta-GGA Hessian, CC/C-PCM, Gaussian charge scheme
   Yang Guo               : DLPNO-NEVPT2, F12-NEVPT2, CIM, IAO-localization
   Andreas Hansen         : Spin unrestricted coupled pair/coupled cluster methods
   Benjamin Helmich-Paris : MC-RPA, TRAH-SCF, COSX integrals
   Lee Huntington         : MR-EOM, pCC
   Robert Izsak           : Overlap fitted RIJCOSX, COSX-SCS-MP3, EOM
   Marcus Kettner         : VPT2
   Christian Kollmar      : KDIIS, OOCD, Brueckner-CCSD(T), CCSD density, CASPT2, CASPT2-K
   Simone Kossmann        : Meta GGA functionals, TD-DFT gradient, OOMP2, MP2 Hessian
   Martin Krupicka        : Initial AUTO-CI
   Lucas Lang             : DCDCAS
   Marvin Lechner         : AUTO-CI (C++ implementation), FIC-MRCC
   Dagmar Lenk            : GEPOL surface, SMD
   Dimitrios Liakos       : Extrapolation schemes; Compound Job, initial MDCI parallelization
   Dimitrios Manganas     : Further ROCIS development; embedding schemes
   Dimitrios Pantazis     : SARC Basis sets
   Anastasios Papadopoulos: AUTO-CI, single reference methods and gradients
   Taras Petrenko         : DFT Hessian,TD-DFT gradient, ASA, ECA, R-Raman, ABS, FL, XAS/XES, NRVS
   Peter Pinski           : DLPNO-MP2, DLPNO-MP2 Gradient
   Christoph Reimann      : Effective Core Potentials
   Marius Retegan         : Local ZFS, SOC
   Christoph Riplinger    : Optimizer, TS searches, QM/MM, DLPNO-CCSD(T), (RO)-DLPNO pert. Triples
   Tobias Risthaus        : Range-separated hybrids, TD-DFT gradient, RPA, STAB
   Michael Roemelt        : Original ROCIS implementation
   Masaaki Saitow         : Open-shell DLPNO-CCSD energy and density
   Barbara Sandhoefer     : DKH picture change effects
   Avijit Sen             : IP-ROCIS
   Kantharuban Sivalingam : CASSCF convergence, NEVPT2, FIC-MRCI
   Bernardo de Souza      : ESD, SOC TD-DFT
   Georgi Stoychev        : AutoAux, RI-MP2 NMR, DLPNO-MP2 response
   Willem Van den Heuvel  : Paramagnetic NMR
   Boris Wezisla          : Elementary symmetry handling
   Frank Wennmohs         : Technical directorship


 We gratefully acknowledge several colleagues who have allowed us to
 interface, adapt or use parts of their codes:
   Stefan Grimme, W. Hujo, H. Kruse, P. Pracht,  : VdW corrections, initial TS optimization,
                  C. Bannwarth, S. Ehlert          DFT functionals, gCP, sTDA/sTD-DF
   Ed Valeev, F. Pavosevic, A. Kumar             : LibInt (2-el integral package), F12 methods
   Garnet Chan, S. Sharma, J. Yang, R. Olivares  : DMRG
   Ulf Ekstrom                                   : XCFun DFT Library
   Mihaly Kallay                                 : mrcc  (arbitrary order and MRCC methods)
   Jiri Pittner, Ondrej Demel                    : Mk-CCSD
   Frank Weinhold                                : gennbo (NPA and NBO analysis)
   Christopher J. Cramer and Donald G. Truhlar   : smd solvation model
   Lars Goerigk                                  : TD-DFT with DH, B97 family of functionals
   V. Asgeirsson, H. Jonsson                     : NEB implementation
   FAccTs GmbH                                   : IRC, NEB, NEB-TS, DLPNO-Multilevel, CI-OPT
                                                   MM, QMMM, 2- and 3-layer-ONIOM, Crystal-QMMM,
                                                   LR-CPCM, SF, NACMEs, symmetry and pop. for TD-DFT,
                                                   nearIR, NL-DFT gradient (VV10), updates on ESD,
                                                   ML-optimized integration grids
   S Lehtola, MJT Oliveira, MAL Marques          : LibXC Library
   Liviu Ungur et al                             : ANISO software


 Your calculation uses the libint2 library for the computation of 2-el integrals
 For citations please refer to: http://libint.valeyev.net

 Your ORCA version has been built with support for libXC version: 5.1.0
 For citations please refer to: https://tddft.org/programs/libxc/

 This ORCA versions uses:
   CBLAS   interface :  Fast vector & matrix operations
   LAPACKE interface :  Fast linear algebra routines
   SCALAPACK package :  Parallel linear algebra routines
   Shared memory     :  Shared parallel matrices
   BLAS/LAPACK       :  OpenBLAS 0.3.15  USE64BITINT DYNAMIC_ARCH NO_AFFINITY Haswell SINGLE_THREADED
        Core in use  :  Haswell
   Copyright (c) 2011-2014, The OpenBLAS Project


================================================================================

----- Orbital basis set information -----
Your calculation utilizes the basis: 6-31G
   H-He, Li-Ne : W. J. Hehre, R. Ditchfield and J.A. Pople, J. Chem. Phys. 56, 2257 (1972).
                 Note: He and Ne are unpublished basis sets taken from the Gaussian program.
                 Note: Li and B from J. D. Dill and J. A. Pople, J. Chem. Phys. 62, 2921 (1975).
   Na - Ar     : M. M. Francl, W. J. Pietro, W. J. Hehre, J. S. Binkley, M. S. Gordon, 
                 D. J. DeFrees and J. A. Pople, J. Chem. Phys. 77, 3654 (1982).
   K - Zn      : V. A. Rassolov, J. A. Pople, M. A. Ratner, and T. L. Windus, J. Chem. Phys. 109, 1223 (1998).

----- AuxJ basis set information -----
Your calculation utilizes the auxiliary basis: def2/J
   F. Weigend, Phys. Chem. Chem. Phys. 8, 1057 (2006).

================================================================================
                                        WARNINGS
                       Please study these warnings very carefully!
================================================================================

INFO   : Checking CIS options ...

INFO   : the flag for use of the SHARK integral package has been found!

================================================================================
                                       INPUT FILE
================================================================================
NAME = acrolien.198.com
|  1> ! B3LYP 6-31G
|  2> !TightSCF
|  3> %scf
|  4>  ConvForced true
|  5>  convergence tight
|  6>  MaxIter 500
|  7> end
|  8>  
|  9> %tddft 
| 10>  nroots 1
| 11> end
| 12> 
| 13> # 	14
| 14> * xyz 0 1
| 15> 		C   -1.190907  -0.418127  -0.032339
| 16> 		O   -1.715959  -1.106730  -0.911725
| 17> 		C    0.061259   0.399063  -0.223832
| 18> 		C    1.223018   0.152031   0.220185
| 19> 		H   -1.715665  -0.297517   1.027614
| 20> 		H   -0.090864   1.342302  -0.792773
| 21> 		H    1.335024  -0.823454   0.783060
| 22> 		H    2.087452   0.764349  -0.115434
| 23> *
| 24> 
| 25>                          ****END OF INPUT****
================================================================================

                       ****************************
                       * Single Point Calculation *
                       ****************************

---------------------------------
CARTESIAN COORDINATES (ANGSTROEM)
---------------------------------
  C     -1.190907   -0.418127   -0.032339
  O     -1.715959   -1.106730   -0.911725
  C      0.061259    0.399063   -0.223832
  C      1.223018    0.152031    0.220185
  H     -1.715665   -0.297517    1.027614
  H     -0.090864    1.342302   -0.792773
  H      1.335024   -0.823454    0.783060
  H      2.087452    0.764349   -0.115434

----------------------------
CARTESIAN COORDINATES (A.U.)
----------------------------
  NO LB      ZA    FRAG     MASS         X           Y           Z
   0 C     6.0000    0    12.011   -2.250488   -0.790146   -0.061112
   1 O     8.0000    0    15.999   -3.242693   -2.091417   -1.722911
   2 C     6.0000    0    12.011    0.115763    0.754120   -0.422981
   3 C     6.0000    0    12.011    2.311169    0.287297    0.416089
   4 H     1.0000    0     1.008   -3.242137   -0.562226    1.941909
   5 H     1.0000    0     1.008   -0.171708    2.536583   -1.498124
   6 H     1.0000    0     1.008    2.522830   -1.556103    1.479769
   7 H     1.0000    0     1.008    3.944713    1.444410   -0.218139

--------------------------------
INTERNAL COORDINATES (ANGSTROEM)
--------------------------------
 C      0   0   0     0.000000000000     0.00000000     0.00000000
 O      1   0   0     1.234169125894     0.00000000     0.00000000
 C      1   2   0     1.507444445645   124.42566393     0.00000000
 C      3   1   2     1.268014147947   127.65859942   253.52505625
 H      1   2   3     1.188872614233   120.27091468   175.19136473
 H      3   1   2     1.111995989080   114.27976414    75.99636869
 H      4   3   1     1.131788228816   115.64116257     3.20109506
 H      4   3   1     1.111224363772   119.97451656   171.37092496

---------------------------
INTERNAL COORDINATES (A.U.)
---------------------------
 C      0   0   0     0.000000000000     0.00000000     0.00000000
 O      1   0   0     2.332241650880     0.00000000     0.00000000
 C      1   2   0     2.848657164369   124.42566393     0.00000000
 C      3   1   2     2.396199473558   127.65859942   253.52505625
 H      1   2   3     2.246643649019   120.27091468   175.19136473
 H      3   1   2     2.101367881381   114.27976414    75.99636869
 H      4   3   1     2.138769794058   115.64116257     3.20109506
 H      4   3   1     2.099909720870   119.97451656   171.37092496

---------------------
BASIS SET INFORMATION
---------------------
There are 3 groups of distinct atoms

 Group   1 Type C   : 10s4p contracted to 3s2p pattern {631/31}
 Group   2 Type O   : 10s4p contracted to 3s2p pattern {631/31}
 Group   3 Type H   : 4s contracted to 2s pattern {31}

Atom   0C    basis set group =>   1
Atom   1O    basis set group =>   2
Atom   2C    basis set group =>   1
Atom   3C    basis set group =>   1
Atom   4H    basis set group =>   3
Atom   5H    basis set group =>   3
Atom   6H    basis set group =>   3
Atom   7H    basis set group =>   3
---------------------------------
AUXILIARY/J BASIS SET INFORMATION
---------------------------------
There are 3 groups of distinct atoms

 Group   1 Type C   : 12s5p4d2f1g contracted to 6s4p3d1f1g pattern {711111/2111/211/2/1}
 Group   2 Type O   : 12s5p4d2f1g contracted to 6s4p3d1f1g pattern {711111/2111/211/2/1}
 Group   3 Type H   : 5s2p1d contracted to 3s1p1d pattern {311/2/1}

Atom   0C    basis set group =>   1
Atom   1O    basis set group =>   2
Atom   2C    basis set group =>   1
Atom   3C    basis set group =>   1
Atom   4H    basis set group =>   3
Atom   5H    basis set group =>   3
Atom   6H    basis set group =>   3
Atom   7H    basis set group =>   3
------------------------------------------------------------------------------
                           ORCA GTO INTEGRAL CALCULATION
                           -- RI-GTO INTEGRALS CHOSEN --
------------------------------------------------------------------------------
------------------------------------------------------------------------------
                   ___                                                        
                  /   \      - P O W E R E D   B Y -                         
                 /     \                                                     
                 |  |  |   _    _      __       _____    __    __             
                 |  |  |  | |  | |    /  \     |  _  \  |  |  /  |          
                  \  \/   | |  | |   /    \    | | | |  |  | /  /          
                 / \  \   | |__| |  /  /\  \   | |_| |  |  |/  /          
                |  |  |   |  __  | /  /__\  \  |    /   |      \           
                |  |  |   | |  | | |   __   |  |    \   |  |\   \          
                \     /   | |  | | |  |  |  |  | |\  \  |  | \   \       
                 \___/    |_|  |_| |__|  |__|  |_| \__\ |__|  \__/        
                                                                              
                      - O R C A' S   B I G   F R I E N D -                    
                                      &                                       
                       - I N T E G R A L  F E E D E R -                       
                                                                              
 v1 FN, 2020, v2 2021                                                         
------------------------------------------------------------------------------


Reading SHARK input file acrolien.198.SHARKINP.tmp ... ok
----------------------
SHARK INTEGRAL PACKAGE
----------------------

Number of atoms                             ...      8
Number of basis functions                   ...     44
Number of shells                            ...     28
Maximum angular momentum                    ...      1
Integral batch strategy                     ... SHARK/LIBINT Hybrid
RI-J (if used) integral strategy            ... SPLIT-RIJ (Revised 2003 algorithm where possible)
Printlevel                                  ...      1
Contraction scheme used                     ... SEGMENTED contraction
Coulomb Range Separation                    ... NOT USED
Exchange Range Separation                   ... NOT USED
Finite Nucleus Model                        ... NOT USED
Auxiliary Coulomb fitting basis             ... AVAILABLE
   # of basis functions in Aux-J            ...    240
   # of shells in Aux-J                     ...     80
   Maximum angular momentum in Aux-J        ...      4
Auxiliary J/K fitting basis                 ... NOT available
Auxiliary Correlation fitting basis         ... NOT available
Auxiliary 'external' fitting basis          ... NOT available
Integral threshold                          ...     2.500000e-11
Primitive cut-off                           ...     2.500000e-12
Primitive pair pre-selection threshold      ...     2.500000e-12

Calculating pre-screening integrals         ... done (  0.0 sec) Dimension = 28
Organizing shell pair data                  ... done (  0.1 sec)
Shell pair information
Total number of shell pairs                 ...       406
Shell pairs after pre-screening             ...       399
Total number of primitive shell pairs       ...      2724
Primitive shell pairs kept                  ...      1992
          la=0 lb=0:    204 shell pairs
          la=1 lb=0:    159 shell pairs
          la=1 lb=1:     36 shell pairs

Calculating one electron integrals          ... done (  0.0 sec)
Calculating RI/J V-Matrix + Cholesky decomp.... done (  0.1 sec)
Calculating Nuclear repulsion               ... done (  0.0 sec) ENN=    102.418506073025 Eh

SHARK setup successfully completed in   0.8 seconds

Maximum memory used throughout the entire GTOINT-calculation: 8.3 MB
-------------------------------------------------------------------------------
                                 ORCA SCF
-------------------------------------------------------------------------------

------------
SCF SETTINGS
------------
Hamiltonian:
 Density Functional     Method          .... DFT(GTOs)
 Exchange Functional    Exchange        .... B88
   X-Alpha parameter    XAlpha          ....  0.666667
   Becke's b parameter  XBeta           ....  0.004200
 Correlation Functional Correlation     .... LYP
 LDA part of GGA corr.  LDAOpt          .... VWN-5
 Gradients option       PostSCFGGA      .... off
 Hybrid DFT is turned on
   Fraction HF Exchange ScalHFX         ....  0.200000
   Scaling of DF-GGA-X  ScalDFX         ....  0.720000
   Scaling of DF-GGA-C  ScalDFC         ....  0.810000
   Scaling of DF-LDA-C  ScalLDAC        ....  1.000000
   Perturbative correction              ....  0.000000
   Density functional embedding theory  .... OFF
   NL short-range parameter             ....  4.800000
 RI-approximation to the Coulomb term is turned on
   Number of AuxJ basis functions       .... 240
   RIJ-COSX (HFX calculated with COS-X)).... on


General Settings:
 Integral files         IntName         .... acrolien.198
 Hartree-Fock type      HFTyp           .... RHF
 Total Charge           Charge          ....    0
 Multiplicity           Mult            ....    1
 Number of Electrons    NEL             ....   30
 Basis Dimension        Dim             ....   44
 Nuclear Repulsion      ENuc            ....    102.4185060730 Eh

Convergence Acceleration:
 DIIS                   CNVDIIS         .... on
   Start iteration      DIISMaxIt       ....    12
   Startup error        DIISStart       ....  0.200000
   # of expansion vecs  DIISMaxEq       ....     5
   Bias factor          DIISBfac        ....   1.050
   Max. coefficient     DIISMaxC        ....  10.000
 Trust-Rad. Augm. Hess. CNVTRAH         .... auto
   Auto Start mean grad. ratio tolernc. ....  1.125000
   Auto Start start iteration           ....    20
   Auto Start num. interpolation iter.  ....    10
   Max. Number of Micro iterations      ....    16
   Max. Number of Macro iterations      .... Maxiter - #DIIS iter
   Number of Davidson start vectors     ....     2
   Converg. threshold I  (grad. norm)   ....   1.000e-05
   Converg. threshold II (energy diff.) ....   1.000e-08
   Grad. Scal. Fac. for Micro threshold ....   0.100
   Minimum threshold for Micro iter.    ....   0.010
   NR start threshold (gradient norm)   ....   0.001
   Initial trust radius                 ....   0.400
   Minimum AH scaling param. (alpha)    ....   1.000
   Maximum AH scaling param. (alpha)    .... 1000.000
   Orbital update algorithm             .... Taylor
   White noise on init. David. guess    .... on
   Maximum white noise                  ....   0.010
   Quad. conv. algorithm                .... NR
 SOSCF                  CNVSOSCF        .... on
   Start iteration      SOSCFMaxIt      ....   150
   Startup grad/error   SOSCFStart      ....  0.003300
 Level Shifting         CNVShift        .... on
   Level shift para.    LevelShift      ....    0.2500
   Turn off err/grad.   ShiftErr        ....    0.0010
 Zerner damping         CNVZerner       .... off
 Static damping         CNVDamp         .... on
   Fraction old density DampFac         ....    0.7000
   Max. Damping (<1)    DampMax         ....    0.9800
   Min. Damping (>=0)   DampMin         ....    0.0000
   Turn off err/grad.   DampErr         ....    0.1000
 Fernandez-Rico         CNVRico         .... off

SCF Procedure:
 Maximum # iterations   MaxIter         ....   500
 SCF integral mode      SCFMode         .... Direct
   Integral package                     .... SHARK and LIBINT hybrid scheme
 Reset frequency        DirectResetFreq ....    20
 Integral Threshold     Thresh          ....  2.500e-11 Eh
 Primitive CutOff       TCut            ....  2.500e-12 Eh

Convergence Tolerance:
 Convergence Check Mode ConvCheckMode   .... Total+1el-Energy
 Convergence forced     ConvForced      .... 1
 Energy Change          TolE            ....  1.000e-08 Eh
 1-El. energy change                    ....  1.000e-05 Eh
 Orbital Gradient       TolG            ....  1.000e-05
 Orbital Rotation angle TolX            ....  1.000e-05
 DIIS Error             TolErr          ....  5.000e-07


Diagonalization of the overlap matrix:
Smallest eigenvalue                        ... 5.635e-03
Time for diagonalization                   ...    0.057 sec
Threshold for overlap eigenvalues          ... 1.000e-08
Number of eigenvalues below threshold      ... 0
Time for construction of square roots      ...    0.097 sec
Total time needed                          ...    0.154 sec

Time for model grid setup =    0.070 sec

------------------------------
INITIAL GUESS: MODEL POTENTIAL
------------------------------
Loading Hartree-Fock densities                     ... done
Calculating cut-offs                               ... done
Initializing the effective Hamiltonian             ... done
Setting up the integral package (SHARK)            ... done
Starting the Coulomb interaction                   ... done (   0.4 sec)
Reading the grid                                   ... done
Mapping shells                                     ... done
Starting the XC term evaluation                    ... done (   0.0 sec)
  promolecular density results
     # of electrons  =     29.998318473
     EX              =    -24.724686069
     EC              =     -0.993855441
     EX+EC           =    -25.718541509
Transforming the Hamiltonian                       ... done (   0.0 sec)
Diagonalizing the Hamiltonian                      ... done (   0.0 sec)
Back transforming the eigenvectors                 ... done (   0.0 sec)
Now organizing SCF variables                       ... done
                      ------------------
                      INITIAL GUESS DONE (   0.5 sec)
                      ------------------
-------------------
DFT GRID GENERATION
-------------------

General Integration Accuracy     IntAcc      ... 4.388
Radial Grid Type                 RadialGrid  ... OptM3 with GC (2021)
Angular Grid (max. ang.)         AngularGrid ... 4 (Lebedev-302)
Angular grid pruning method      GridPruning ... 4 (adaptive)
Weight generation scheme         WeightScheme... Becke
Basis function cutoff            BFCut       ... 1.0000e-11
Integration weight cutoff        WCut        ... 1.0000e-14
Angular grids for H and He will be reduced by one unit
Partially contracted basis set               ... off
Rotationally invariant grid construction     ... off

Total number of grid points                  ...    37425
Total number of batches                      ...      590
Average number of points per batch           ...       63
Average number of grid points per atom       ...     4678
Time for grid setup =    0.539 sec

--------------------
COSX GRID GENERATION
--------------------

GRIDX 1
-------
General Integration Accuracy     IntAcc      ... 3.816
Radial Grid Type                 RadialGrid  ... OptM3 with GC (2021)
Angular Grid (max. ang.)         AngularGrid ... 1 (Lebedev-50)
Angular grid pruning method      GridPruning ... 4 (adaptive)
Weight generation scheme         WeightScheme... Becke
Basis function cutoff            BFCut       ... 1.0000e-11
Integration weight cutoff        WCut        ... 1.0000e-14
Angular grids for H and He will be reduced by one unit
Partially contracted basis set               ... on
Rotationally invariant grid construction     ... off

Total number of grid points                  ...     4806
Total number of batches                      ...       79
Average number of points per batch           ...       60
Average number of grid points per atom       ...      601
UseSFitting                                  ... on

GRIDX 2
-------
General Integration Accuracy     IntAcc      ... 4.020
Radial Grid Type                 RadialGrid  ... OptM3 with GC (2021)
Angular Grid (max. ang.)         AngularGrid ... 2 (Lebedev-110)
Angular grid pruning method      GridPruning ... 4 (adaptive)
Weight generation scheme         WeightScheme... Becke
Basis function cutoff            BFCut       ... 1.0000e-11
Integration weight cutoff        WCut        ... 1.0000e-14
Angular grids for H and He will be reduced by one unit
Partially contracted basis set               ... on
Rotationally invariant grid construction     ... off

Total number of grid points                  ...    10575
Total number of batches                      ...      170
Average number of points per batch           ...       62
Average number of grid points per atom       ...     1322
UseSFitting                                  ... on

GRIDX 3
-------
General Integration Accuracy     IntAcc      ... 4.338
Radial Grid Type                 RadialGrid  ... OptM3 with GC (2021)
Angular Grid (max. ang.)         AngularGrid ... 3 (Lebedev-194)
Angular grid pruning method      GridPruning ... 4 (adaptive)
Weight generation scheme         WeightScheme... Becke
Basis function cutoff            BFCut       ... 1.0000e-11
Integration weight cutoff        WCut        ... 1.0000e-14
Angular grids for H and He will be reduced by one unit
Partially contracted basis set               ... on
Rotationally invariant grid construction     ... off

Total number of grid points                  ...    23320
Total number of batches                      ...      368
Average number of points per batch           ...       63
Average number of grid points per atom       ...     2915
UseSFitting                                  ... on

Time for X-Grid setup             =    2.398 sec

--------------
SCF ITERATIONS
--------------
ITER       Energy         Delta-E        Max-DP      RMS-DP      [F,P]     Damp
               ***  Starting incremental Fock matrix formation  ***
  0   -191.5673495039   0.000000000000 0.09524946  0.00764376  0.2434676 0.7000
  1   -191.6413987953  -0.074049291373 0.05031151  0.00446591  0.0807193 0.7000
                               ***Turning on DIIS***
  2   -191.6643688763  -0.022970081067 0.05972691  0.00605786  0.0345158 0.0000
  3   -191.7083233959  -0.043954519568 0.03346360  0.00321965  0.0402431 0.0000
  4   -191.7149238169  -0.006600420962 0.01090207  0.00122928  0.0210673 0.0000
                      *** Initiating the SOSCF procedure ***
                           *** Shutting down DIIS ***
                      *** Re-Reading the Fockian *** 
                      *** Removing any level shift *** 
ITER      Energy       Delta-E        Grad      Rot      Max-DP    RMS-DP
  5   -191.71629120  -0.0013673799  0.000802  0.000802  0.003905  0.000354
               *** Restarting incremental Fock matrix formation ***
  6   -191.71630777  -0.0000165692  0.000379  0.001160  0.001686  0.000175
  7   -191.71630581   0.0000019564  0.000684  0.000674  0.001019  0.000089
  8   -191.71631049  -0.0000046840  0.000171  0.000201  0.000491  0.000051
  9   -191.71631035   0.0000001427  0.000155  0.000189  0.000277  0.000026
 10   -191.71631083  -0.0000004840  0.000037  0.000106  0.000112  0.000008
 11   -191.71631082   0.0000000110  0.000052  0.000062  0.000070  0.000005
                  ***Gradient check signals convergence***
              ***Rediagonalizing the Fockian in SOSCF/NRSCF***

               *****************************************************
               *                     SUCCESS                       *
               *           SCF CONVERGED AFTER  12 CYCLES          *
               *****************************************************

Old exchange energy                            =     -5.010985375 Eh
New exchange energy                            =     -5.010955508 Eh
Exchange energy change after final integration =      0.000029867 Eh
Total energy after final integration           =   -191.716280975 Eh
Final COS-X integration done in                =     0.802 sec

----------------
TOTAL SCF ENERGY
----------------

Total Energy       :         -191.71628098 Eh           -5216.86523 eV

Components:
Nuclear Repulsion  :          102.41850607 Eh            2786.94924 eV
Electronic Energy  :         -294.13478705 Eh           -8003.81446 eV
One Electron Energy:         -461.78226781 Eh          -12565.73434 eV
Two Electron Energy:          167.64748076 Eh            4561.91987 eV
Max COSX asymmetry :            0.00000081 Eh               0.00002 eV

Virial components:
Potential Energy   :         -382.45780639 Eh          -10407.20600 eV
Kinetic Energy     :          190.74152541 Eh            5190.34078 eV
Virial Ratio       :            2.00511035


DFT components:
N(Alpha)           :       15.000000740804 electrons
N(Beta)            :       15.000000740804 electrons
N(Total)           :       30.000001481608 electrons
E(X)               :      -19.951434381949 Eh       
E(C)               :       -1.180863371830 Eh       
E(XC)              :      -21.132297753779 Eh       
DFET-embed. en.    :        0.000000000000 Eh       

---------------
SCF CONVERGENCE
---------------

  Last Energy change         ...   -1.8938e-08  Tolerance :   1.0000e-08
  Last MAX-Density change    ...    2.2204e-15  Tolerance :   1.0000e-07
  Last RMS-Density change    ...    9.6301e-17  Tolerance :   5.0000e-09
  Last Orbital Gradient      ...    7.1321e-07  Tolerance :   1.0000e-05
  Last Orbital Rotation      ...    8.6294e-07  Tolerance :   1.0000e-05

             **** THE GBW FILE WAS UPDATED (acrolien.198.gbw) ****
             **** DENSITY acrolien.198.scfp WAS UPDATED ****
             **** ENERGY FILE WAS UPDATED (acrolien.198.en.tmp) ****
             **** THE GBW FILE WAS UPDATED (acrolien.198.gbw) ****
             **** DENSITY acrolien.198.scfp WAS UPDATED ****
----------------
ORBITAL ENERGIES
----------------

  NO   OCC          E(Eh)            E(eV) 
   0   2.0000     -19.163442      -521.4638 
   1   2.0000     -10.296920      -280.1934 
   2   2.0000     -10.202404      -277.6215 
   3   2.0000     -10.199779      -277.5501 
   4   2.0000      -1.065671       -28.9984 
   5   2.0000      -0.813214       -22.1287 
   6   2.0000      -0.648360       -17.6428 
   7   2.0000      -0.550536       -14.9808 
   8   2.0000      -0.497100       -13.5268 
   9   2.0000      -0.464957       -12.6521 
  10   2.0000      -0.437416       -11.9027 
  11   2.0000      -0.393114       -10.6972 
  12   2.0000      -0.368375       -10.0240 
  13   2.0000      -0.298954        -8.1349 
  14   2.0000      -0.259769        -7.0687 
  15   0.0000      -0.048484        -1.3193 
  16   0.0000       0.009500         0.2585 
  17   0.0000       0.108320         2.9475 
  18   0.0000       0.110768         3.0142 
  19   0.0000       0.120369         3.2754 
  20   0.0000       0.183513         4.9936 
  21   0.0000       0.270650         7.3648 
  22   0.0000       0.315879         8.5955 
  23   0.0000       0.347004         9.4425 
  24   0.0000       0.507633        13.8134 
  25   0.0000       0.537791        14.6340 
  26   0.0000       0.556463        15.1421 
  27   0.0000       0.597600        16.2615 
  28   0.0000       0.642111        17.4727 
  29   0.0000       0.670337        18.2408 
  30   0.0000       0.707089        19.2409 
  31   0.0000       0.748626        20.3712 
  32   0.0000       0.812661        22.1136 
  33   0.0000       0.829928        22.5835 
  34   0.0000       0.833716        22.6866 
  35   0.0000       0.880278        23.9536 
  36   0.0000       0.905992        24.6533 
  37   0.0000       0.954834        25.9824 
  38   0.0000       0.989106        26.9149 
  39   0.0000       1.029082        28.0027 
  40   0.0000       1.108104        30.1530 
  41   0.0000       1.198126        32.6027 
  42   0.0000       1.279286        34.8111 
  43   0.0000       1.696687        46.1692 

                    ********************************
                    * MULLIKEN POPULATION ANALYSIS *
                    ********************************

-----------------------
MULLIKEN ATOMIC CHARGES
-----------------------
   0 C :    0.179426
   1 O :   -0.355192
   2 C :   -0.117921
   3 C :   -0.267738
   4 H :    0.111928
   5 H :    0.162558
   6 H :    0.138251
   7 H :    0.148689
Sum of atomic charges:    0.0000000

--------------------------------
MULLIKEN REDUCED ORBITAL CHARGES
--------------------------------
  0 C s       :     3.213758  s :     3.213758
      pz      :     0.902963  p :     2.606817
      px      :     0.914741
      py      :     0.789112
  1 O s       :     3.957421  s :     3.957421
      pz      :     1.510853  p :     4.397771
      px      :     1.573922
      py      :     1.312997
  2 C s       :     3.178666  s :     3.178666
      pz      :     1.002561  p :     2.939255
      px      :     0.927683
      py      :     1.009011
  3 C s       :     3.271759  s :     3.271759
      pz      :     0.998388  p :     2.995979
      px      :     0.984573
      py      :     1.013019
  4 H s       :     0.888072  s :     0.888072
  5 H s       :     0.837442  s :     0.837442
  6 H s       :     0.861749  s :     0.861749
  7 H s       :     0.851311  s :     0.851311


                     *******************************
                     * LOEWDIN POPULATION ANALYSIS *
                     *******************************

----------------------
LOEWDIN ATOMIC CHARGES
----------------------
   0 C :    0.132698
   1 O :   -0.221306
   2 C :   -0.170924
   3 C :   -0.201521
   4 H :    0.077514
   5 H :    0.132704
   6 H :    0.120437
   7 H :    0.130398

-------------------------------
LOEWDIN REDUCED ORBITAL CHARGES
-------------------------------
  0 C s       :     3.002908  s :     3.002908
      pz      :     1.024802  p :     2.864394
      px      :     0.976589
      py      :     0.863002
  1 O s       :     3.654737  s :     3.654737
      pz      :     1.597655  p :     4.566569
      px      :     1.615985
      py      :     1.352929
  2 C s       :     2.964524  s :     2.964524
      pz      :     1.033408  p :     3.206400
      px      :     1.108240
      py      :     1.064752
  3 C s       :     2.993861  s :     2.993861
      pz      :     1.028655  p :     3.207660
      px      :     1.109843
      py      :     1.069163
  4 H s       :     0.922486  s :     0.922486
  5 H s       :     0.867296  s :     0.867296
  6 H s       :     0.879563  s :     0.879563
  7 H s       :     0.869602  s :     0.869602


                      *****************************
                      * MAYER POPULATION ANALYSIS *
                      *****************************

  NA   - Mulliken gross atomic population
  ZA   - Total nuclear charge
  QA   - Mulliken gross atomic charge
  VA   - Mayer's total valence
  BVA  - Mayer's bonded valence
  FA   - Mayer's free valence

  ATOM       NA         ZA         QA         VA         BVA        FA
  0 C      5.8206     6.0000     0.1794     3.7028     3.7028     0.0000
  1 O      8.3552     8.0000    -0.3552     2.0088     2.0088     0.0000
  2 C      6.1179     6.0000    -0.1179     3.7497     3.7497     0.0000
  3 C      6.2677     6.0000    -0.2677     3.8787     3.8787     0.0000
  4 H      0.8881     1.0000     0.1119     0.9330     0.9330     0.0000
  5 H      0.8374     1.0000     0.1626     0.9383     0.9383     0.0000
  6 H      0.8617     1.0000     0.1383     0.9489     0.9489     0.0000
  7 H      0.8513     1.0000     0.1487     0.9487     0.9487     0.0000

  Mayer bond orders larger than 0.100000
B(  0-C ,  1-O ) :   1.9069 B(  0-C ,  2-C ) :   0.9111 B(  0-C ,  4-H ) :   0.8622 
B(  2-C ,  3-C ) :   1.9506 B(  2-C ,  5-H ) :   0.9220 B(  3-C ,  6-H ) :   0.9542 
B(  3-C ,  7-H ) :   0.9436 

-------
TIMINGS
-------

Total SCF time: 0 days 0 hours 0 min 39 sec 

Total time                  ....      39.666 sec
Sum of individual times     ....      29.722 sec  ( 74.9%)

Fock matrix formation       ....      26.263 sec  ( 66.2%)
  Split-RI-J                ....       0.580 sec  (  2.2% of F)
  Chain of spheres X        ....       4.403 sec  ( 16.8% of F)
  XC integration            ....       9.099 sec  ( 34.6% of F)
    Basis function eval.    ....       0.936 sec  ( 10.3% of XC)
    Density eval.           ....       0.436 sec  (  4.8% of XC)
    XC-Functional eval.     ....       0.635 sec  (  7.0% of XC)
    XC-Potential eval.      ....       0.235 sec  (  2.6% of XC)
Diagonalization             ....       0.003 sec  (  0.0%)
Density matrix formation    ....       0.000 sec  (  0.0%)
Population analysis         ....       0.002 sec  (  0.0%)
Initial guess               ....       0.444 sec  (  1.1%)
Orbital Transformation      ....       0.000 sec  (  0.0%)
Orbital Orthonormalization  ....       0.000 sec  (  0.0%)
DIIS solution               ....       0.001 sec  (  0.0%)
SOSCF solution              ....       0.002 sec  (  0.0%)
Grid generation             ....       3.007 sec  (  7.6%)

Maximum memory used throughout the entire SCF-calculation: 46.7 MB
------------------------------------------------------------------------------
                        ORCA TD-DFT/TDA CALCULATION
------------------------------------------------------------------------------

Input orbitals are from        ... acrolien.198.gbw
CI-vector output               ... acrolien.198.cis
Tamm-Dancoff approximation     ... operative
CIS-Integral strategy          ... AO-integrals
Integral handling              ... AO integral Direct
Max. core memory used          ... 512 MB
Reference state                ... RHF
Generation of triplets         ... off
Follow IRoot                   ... off
Number of operators            ... 1
Orbital ranges used for CIS calculation:
 Operator 0:  Orbitals   4... 14  to  15... 43
XAS localization array:
 Operator 0:  Orbitals  -1... -1

-------------------
XC-INTEGRATION GRID
-------------------

General Integration Accuracy     IntAcc      ... 3.467
Radial Grid Type                 RadialGrid  ... OptM3 with GC (2021)
Angular Grid (max. ang.)         AngularGrid ... 1 (Lebedev-50)
Angular grid pruning method      GridPruning ... 4 (adaptive)
Weight generation scheme         WeightScheme... Becke
Basis function cutoff            BFCut       ... 1.0000e-11
Integration weight cutoff        WCut        ... 1.0000e-14
Angular grids for H and He will be reduced by one unit
Partially contracted basis set               ... off
Rotationally invariant grid construction     ... off

Total number of grid points                  ...     5501
Total number of batches                      ...       90
Average number of points per batch           ...       61
Average number of grid points per atom       ...      688

---------------------
COSX-INTEGRATION GRID
---------------------

General Integration Accuracy     IntAcc      ... 3.067
Radial Grid Type                 RadialGrid  ... OptM3 with GC (2021)
Angular Grid (max. ang.)         AngularGrid ... 1 (Lebedev-50)
Angular grid pruning method      GridPruning ... 4 (adaptive)
Weight generation scheme         WeightScheme... Becke
Basis function cutoff            BFCut       ... 1.0000e-11
Integration weight cutoff        WCut        ... 1.0000e-14
Angular grids for H and He will be reduced by one unit
Partially contracted basis set               ... on
Rotationally invariant grid construction     ... off

Total number of grid points                  ...     2509
Total number of batches                      ...       45
Average number of points per batch           ...       55
Average number of grid points per atom       ...      314

---------------
TD-DFT XC SETUP
---------------

DFT calculation                         ... on
Name of the grid file                   ... acrolien.198.grid_cis.tmp
Exchange functional (TD-DFT)            ... B88
   X-Alpha parameter    XAlpha (TD-DFT) ...  0.666667
   Becke's b parameter  XBeta (TD-DFT)  ...  0.004200
Correlation functional (TD-DFT)         ... LYP
 LDA part of GGA corr.  LDAOpt (TD-DFT) ... VWN-5
Hybrid DFT                              ... on
   Exchange mixing (TD-DFT)             ...  0.200
   GGA exch. scaling (TD-DFT)           ...  0.720
   GGA corr. scaling (TD-DFT)           ...  0.810

Building densities             ... done
Calculating rho(r) on the grid ... done
Building xc-kernel on the grid ... done
                    *** TD-DFT CALCULATION INITIALIZED ***

------------------------
DAVIDSON-DIAGONALIZATION
------------------------

Dimension of the eigenvalue problem            ...    319
Number of roots to be determined               ...      1
Maximum size of the expansion space            ...     10
Maximum number of iterations                   ...    100
Convergence tolerance for the residual         ...    2.500e-07
Convergence tolerance for the energies         ...    2.500e-07
Orthogonality tolerance                        ...    1.000e-14
Level Shift                                    ...    0.000e+00
Constructing the preconditioner                ... o.k.
Building the initial guess                     ... o.k.
Number of trial vectors determined             ...     10


                       ****Iteration    0****

   Memory handling for direct AO based CIS:
   Memory per vector needed      ...     1 MB
   Memory needed                 ...     0 MB
   Memory available              ...   512 MB
   Number of vectors per batch   ...   512
   Number of batches             ...     1
   Time for densities:            0.000
   Time for RI-J (Direct):        0.043
   Time for K (COSX):             0.145
   Time for XC-Integration:       0.038
   Time for Sigma-Completion:     0.000
   Size of expansion space: 3
   Lowest Energy          :     0.143338042257
   Maximum Energy change  :     0.143338042257 (vector 0)
   Maximum residual norm  :     0.001007685906

                       ****Iteration    1****
   Time for densities:            0.000
   Time for RI-J (Direct):        0.034
   Time for K (COSX):             0.658
   Time for XC-Integration:       0.022
   Time for Sigma-Completion:     0.000
   Size of expansion space: 4
   Lowest Energy          :     0.141753324450
   Maximum Energy change  :     0.001584717807 (vector 0)
   Maximum residual norm  :     0.000338862532

                       ****Iteration    2****
   Time for densities:            0.000
   Time for RI-J (Direct):        0.034
   Time for K (COSX):             0.107
   Time for XC-Integration:       0.022
   Time for Sigma-Completion:     0.000
   Size of expansion space: 5
   Lowest Energy          :     0.141352002006
   Maximum Energy change  :     0.000401322445 (vector 0)
   Maximum residual norm  :     0.000013968295

                       ****Iteration    3****
   Time for densities:            0.000
   Time for RI-J (Direct):        0.034
   Time for K (COSX):             0.107
   Time for XC-Integration:       0.022
   Time for Sigma-Completion:     0.000
   Size of expansion space: 6
   Lowest Energy          :     0.141334476052
   Maximum Energy change  :     0.000017525954 (vector 0)
   Maximum residual norm  :     0.000001086188

                       ****Iteration    4****
   Time for densities:            0.000
   Time for RI-J (Direct):        0.034
   Time for K (COSX):             1.616
   Time for XC-Integration:       0.023
   Time for Sigma-Completion:     0.000
   Size of expansion space: 7
   Lowest Energy          :     0.141333161234
   Maximum Energy change  :     0.000001314817 (vector 0)
   Maximum residual norm  :     0.000000088473

      *** CONVERGENCE OF RESIDUAL NORM REACHED ***

Storing the converged CI vectors               ... acrolien.198.cis1

                 *** DAVIDSON DONE ***

Total time for solving the CIS problem:     4.428sec

------------------------------------
TD-DFT/TDA EXCITED STATES (SINGLETS)
------------------------------------

the weight of the individual excitations are printed if larger than 1.0e-02

STATE  1:  E=   0.141333 au      3.846 eV    31019.0 cm**-1 <S**2> =   0.000000
    14a ->  15a  :     0.984727 (c=  0.99233410)


-----------------------------
TD-DFT/TDA-EXCITATION SPECTRA
-----------------------------

Center of mass = ( -0.8327, -0.5095, -0.4756)
Calculating the Dipole integrals                  ... done
Transforming integrals                            ... done
Calculating the Linear Momentum integrals         ... done
Transforming integrals                            ... done
Calculating angular momentum integrals            ... done
Transforming integrals                            ... done

-----------------------------------------------------------------------------
         ABSORPTION SPECTRUM VIA TRANSITION ELECTRIC DIPOLE MOMENTS
-----------------------------------------------------------------------------
State   Energy    Wavelength  fosc         T2        TX        TY        TZ  
        (cm-1)      (nm)                 (au**2)    (au)      (au)      (au) 
-----------------------------------------------------------------------------
   1   31019.0    322.4   0.000378053   0.00401  -0.06295  -0.00581  -0.00405

-----------------------------------------------------------------------------
         ABSORPTION SPECTRUM VIA TRANSITION VELOCITY DIPOLE MOMENTS
-----------------------------------------------------------------------------
State   Energy    Wavelength   fosc        P2         PX        PY        PZ  
        (cm-1)      (nm)                 (au**2)     (au)      (au)      (au) 
-----------------------------------------------------------------------------
   1   31019.0    322.4   0.000118495   0.00003  -0.00361   0.00083  -0.00338

-------------------------------------------------------------------
                             CD SPECTRUM
-------------------------------------------------------------------
State  Energy     Wavelength     R         MX        MY        MZ   
       (cm-1)       (nm)     (1e40*cgs)   (au)      (au)      (au)  
-------------------------------------------------------------------
   1   31019.0    322.4      8.21349  -0.22626  -0.30380  -0.34914

-------------------------------------------------------------------
         CD SPECTRUM VIA TRANSITION VELOCITY DIPOLE MOMENTS        
-------------------------------------------------------------------
State  Energy     Wavelength     R         MX        MY        MZ   
       (cm-1)       (nm)     (1e40*cgs)   (au)      (au)      (au)  
-------------------------------------------------------------------
   1   31019.0    322.4      5.81462  -0.22626  -0.30380  -0.34914

Total run time:        8.310 sec

           *** ORCA-CIS/TD-DFT FINISHED WITHOUT ERROR ***

Maximum memory used throughout the entire CIS-calculation: 42.9 MB

-----------------------
CIS/TD-DFT TOTAL ENERGY
-----------------------

    E(SCF)  =   -191.716280975 Eh
    DE(CIS) =      0.141333161 Eh (Root  1)
    ----------------------------- ---------
    E(tot)  =   -191.574947814 Eh


-------------------------   --------------------
FINAL SINGLE POINT ENERGY      -191.574947814238
-------------------------   --------------------


                            ***************************************
                            *     ORCA property calculations      *
                            ***************************************

                                    ---------------------
                                    Active property flags
                                    ---------------------
   (+) Dipole Moment


------------------------------------------------------------------------------
                       ORCA ELECTRIC PROPERTIES CALCULATION
------------------------------------------------------------------------------

Dipole Moment Calculation                       ... on
Quadrupole Moment Calculation                   ... off
Polarizability Calculation                      ... off
GBWName                                         ... acrolien.198.gbw
Electron density                                ... acrolien.198.scfp
The origin for moment calculation is the CENTER OF MASS  = (-0.832663, -0.509507 -0.475574)

-------------
DIPOLE MOMENT
-------------
                                X             Y             Z
Electronic contribution:     -2.51600      -1.26638      -1.21026
Nuclear contribution   :      3.15072       1.92416       1.78133
                        -----------------------------------------
Total Dipole Moment    :      0.63473       0.65779       0.57107
                        -----------------------------------------
Magnitude (a.u.)       :      1.07781
Magnitude (Debye)      :      2.73958



--------------------
Rotational spectrum 
--------------------
 
Rotational constants in cm-1:     1.132786     0.154910     0.153683 
Rotational constants in MHz : 33960.079836  4644.094605  4607.285882 

 Dipole components along the rotational axes: 
x,y,z [a.u.] :    -0.968694    -0.306615     0.359581 
x,y,z [Debye]:    -2.462224    -0.779353     0.913983 

 

Timings for individual modules:

Sum of individual times         ...       50.098 sec (=   0.835 min)
GTO integral calculation        ...        1.659 sec (=   0.028 min)   3.3 %
SCF iterations                  ...       40.121 sec (=   0.669 min)  80.1 %
CIS module                      ...        8.318 sec (=   0.139 min)  16.6 %
                             ****ORCA TERMINATED NORMALLY****
TOTAL RUN TIME: 0 days 0 hours 0 minutes 51 seconds 999 msec
