
                                 *****************
                                 * O   R   C   A *
                                 *****************

                                            #,                                       
                                            ###                                      
                                            ####                                     
                                            #####                                    
                                            ######                                   
                                           ########,                                 
                                     ,,################,,,,,                         
                               ,,#################################,,                 
                          ,,##########################################,,             
                       ,#########################################, ''#####,          
                    ,#############################################,,   '####,        
                  ,##################################################,,,,####,       
                ,###########''''           ''''###############################       
              ,#####''   ,,,,##########,,,,          '''####'''          '####       
            ,##' ,,,,###########################,,,                        '##       
           ' ,,###''''                  '''############,,,                           
         ,,##''                                '''############,,,,        ,,,,,,###''
      ,#''                                            '''#######################'''  
     '                                                          ''''####''''         
             ,#######,   #######,   ,#######,      ##                                
            ,#'     '#,  ##    ##  ,#'     '#,    #''#        ######   ,####,        
            ##       ##  ##   ,#'  ##            #'  '#       #        #'  '#        
            ##       ##  #######   ##           ,######,      #####,   #    #        
            '#,     ,#'  ##    ##  '#,     ,#' ,#      #,         ##   #,  ,#        
             '#######'   ##     ##  '#######'  #'      '#     #####' # '####'        



                  #######################################################
                  #                        -***-                        #
                  #          Department of theory and spectroscopy      #
                  #    Directorship and core code : Frank Neese         #
                  #        Max Planck Institute fuer Kohlenforschung    #
                  #                Kaiser Wilhelm Platz 1               #
                  #                 D-45470 Muelheim/Ruhr               #
                  #                      Germany                        #
                  #                                                     #
                  #                  All rights reserved                #
                  #                        -***-                        #
                  #######################################################


                         Program Version 5.0.3 -  RELEASE  -


 With contributions from (in alphabetic order):
   Daniel Aravena         : Magnetic Suceptibility
   Michael Atanasov       : Ab Initio Ligand Field Theory (pilot matlab implementation)
   Alexander A. Auer      : GIAO ZORA, VPT2 properties, NMR spectrum
   Ute Becker             : Parallelization
   Giovanni Bistoni       : ED, misc. LED, open-shell LED, HFLD
   Martin Brehm           : Molecular dynamics
   Dmytro Bykov           : SCF Hessian
   Vijay G. Chilkuri      : MRCI spin determinant printing, contributions to CSF-ICE
   Dipayan Datta          : RHF DLPNO-CCSD density
   Achintya Kumar Dutta   : EOM-CC, STEOM-CC
   Dmitry Ganyushin       : Spin-Orbit,Spin-Spin,Magnetic field MRCI
   Miquel Garcia          : C-PCM and meta-GGA Hessian, CC/C-PCM, Gaussian charge scheme
   Yang Guo               : DLPNO-NEVPT2, F12-NEVPT2, CIM, IAO-localization
   Andreas Hansen         : Spin unrestricted coupled pair/coupled cluster methods
   Benjamin Helmich-Paris : MC-RPA, TRAH-SCF, COSX integrals
   Lee Huntington         : MR-EOM, pCC
   Robert Izsak           : Overlap fitted RIJCOSX, COSX-SCS-MP3, EOM
   Marcus Kettner         : VPT2
   Christian Kollmar      : KDIIS, OOCD, Brueckner-CCSD(T), CCSD density, CASPT2, CASPT2-K
   Simone Kossmann        : Meta GGA functionals, TD-DFT gradient, OOMP2, MP2 Hessian
   Martin Krupicka        : Initial AUTO-CI
   Lucas Lang             : DCDCAS
   Marvin Lechner         : AUTO-CI (C++ implementation), FIC-MRCC
   Dagmar Lenk            : GEPOL surface, SMD
   Dimitrios Liakos       : Extrapolation schemes; Compound Job, initial MDCI parallelization
   Dimitrios Manganas     : Further ROCIS development; embedding schemes
   Dimitrios Pantazis     : SARC Basis sets
   Anastasios Papadopoulos: AUTO-CI, single reference methods and gradients
   Taras Petrenko         : DFT Hessian,TD-DFT gradient, ASA, ECA, R-Raman, ABS, FL, XAS/XES, NRVS
   Peter Pinski           : DLPNO-MP2, DLPNO-MP2 Gradient
   Christoph Reimann      : Effective Core Potentials
   Marius Retegan         : Local ZFS, SOC
   Christoph Riplinger    : Optimizer, TS searches, QM/MM, DLPNO-CCSD(T), (RO)-DLPNO pert. Triples
   Tobias Risthaus        : Range-separated hybrids, TD-DFT gradient, RPA, STAB
   Michael Roemelt        : Original ROCIS implementation
   Masaaki Saitow         : Open-shell DLPNO-CCSD energy and density
   Barbara Sandhoefer     : DKH picture change effects
   Avijit Sen             : IP-ROCIS
   Kantharuban Sivalingam : CASSCF convergence, NEVPT2, FIC-MRCI
   Bernardo de Souza      : ESD, SOC TD-DFT
   Georgi Stoychev        : AutoAux, RI-MP2 NMR, DLPNO-MP2 response
   Willem Van den Heuvel  : Paramagnetic NMR
   Boris Wezisla          : Elementary symmetry handling
   Frank Wennmohs         : Technical directorship


 We gratefully acknowledge several colleagues who have allowed us to
 interface, adapt or use parts of their codes:
   Stefan Grimme, W. Hujo, H. Kruse, P. Pracht,  : VdW corrections, initial TS optimization,
                  C. Bannwarth, S. Ehlert          DFT functionals, gCP, sTDA/sTD-DF
   Ed Valeev, F. Pavosevic, A. Kumar             : LibInt (2-el integral package), F12 methods
   Garnet Chan, S. Sharma, J. Yang, R. Olivares  : DMRG
   Ulf Ekstrom                                   : XCFun DFT Library
   Mihaly Kallay                                 : mrcc  (arbitrary order and MRCC methods)
   Jiri Pittner, Ondrej Demel                    : Mk-CCSD
   Frank Weinhold                                : gennbo (NPA and NBO analysis)
   Christopher J. Cramer and Donald G. Truhlar   : smd solvation model
   Lars Goerigk                                  : TD-DFT with DH, B97 family of functionals
   V. Asgeirsson, H. Jonsson                     : NEB implementation
   FAccTs GmbH                                   : IRC, NEB, NEB-TS, DLPNO-Multilevel, CI-OPT
                                                   MM, QMMM, 2- and 3-layer-ONIOM, Crystal-QMMM,
                                                   LR-CPCM, SF, NACMEs, symmetry and pop. for TD-DFT,
                                                   nearIR, NL-DFT gradient (VV10), updates on ESD,
                                                   ML-optimized integration grids
   S Lehtola, MJT Oliveira, MAL Marques          : LibXC Library
   Liviu Ungur et al                             : ANISO software


 Your calculation uses the libint2 library for the computation of 2-el integrals
 For citations please refer to: http://libint.valeyev.net

 Your ORCA version has been built with support for libXC version: 5.1.0
 For citations please refer to: https://tddft.org/programs/libxc/

 This ORCA versions uses:
   CBLAS   interface :  Fast vector & matrix operations
   LAPACKE interface :  Fast linear algebra routines
   SCALAPACK package :  Parallel linear algebra routines
   Shared memory     :  Shared parallel matrices
   BLAS/LAPACK       :  OpenBLAS 0.3.15  USE64BITINT DYNAMIC_ARCH NO_AFFINITY Haswell SINGLE_THREADED
        Core in use  :  Haswell
   Copyright (c) 2011-2014, The OpenBLAS Project


================================================================================

----- Orbital basis set information -----
Your calculation utilizes the basis: 6-31G
   H-He, Li-Ne : W. J. Hehre, R. Ditchfield and J.A. Pople, J. Chem. Phys. 56, 2257 (1972).
                 Note: He and Ne are unpublished basis sets taken from the Gaussian program.
                 Note: Li and B from J. D. Dill and J. A. Pople, J. Chem. Phys. 62, 2921 (1975).
   Na - Ar     : M. M. Francl, W. J. Pietro, W. J. Hehre, J. S. Binkley, M. S. Gordon, 
                 D. J. DeFrees and J. A. Pople, J. Chem. Phys. 77, 3654 (1982).
   K - Zn      : V. A. Rassolov, J. A. Pople, M. A. Ratner, and T. L. Windus, J. Chem. Phys. 109, 1223 (1998).

----- AuxJ basis set information -----
Your calculation utilizes the auxiliary basis: def2/J
   F. Weigend, Phys. Chem. Chem. Phys. 8, 1057 (2006).

================================================================================
                                        WARNINGS
                       Please study these warnings very carefully!
================================================================================

INFO   : Checking CIS options ...

INFO   : the flag for use of the SHARK integral package has been found!

================================================================================
                                       INPUT FILE
================================================================================
NAME = acrolien.877.com
|  1> ! B3LYP 6-31G
|  2> !TightSCF
|  3> %scf
|  4>  ConvForced true
|  5>  convergence tight
|  6>  MaxIter 500
|  7> end
|  8>  
|  9> %tddft 
| 10>  nroots 1
| 11> end
| 12> 
| 13> # 	29626
| 14> * xyz 0 1
| 15> 		C   -0.592339  -0.452953   0.047995
| 16> 		O   -0.556082  -1.592700  -0.023029
| 17> 		C    0.620954   0.451224  -0.040080
| 18> 		C    1.837274  -0.191310   0.023081
| 19> 		H   -1.488344   0.012906   0.005517
| 20> 		H    0.607269   1.500481  -0.000105
| 21> 		H    1.982408  -1.302722   0.074629
| 22> 		H    2.486234   0.614799  -0.090464
| 23> *
| 24> 
| 25>                          ****END OF INPUT****
================================================================================

                       ****************************
                       * Single Point Calculation *
                       ****************************

---------------------------------
CARTESIAN COORDINATES (ANGSTROEM)
---------------------------------
  C     -0.592339   -0.452953    0.047995
  O     -0.556082   -1.592700   -0.023029
  C      0.620954    0.451224   -0.040080
  C      1.837274   -0.191310    0.023081
  H     -1.488344    0.012906    0.005517
  H      0.607269    1.500481   -0.000105
  H      1.982408   -1.302722    0.074629
  H      2.486234    0.614799   -0.090464

----------------------------
CARTESIAN COORDINATES (A.U.)
----------------------------
  NO LB      ZA    FRAG     MASS         X           Y           Z
   0 C     6.0000    0    12.011   -1.119358   -0.855957    0.090697
   1 O     8.0000    0    15.999   -1.050843   -3.009767   -0.043519
   2 C     6.0000    0    12.011    1.173433    0.852690   -0.075740
   3 C     6.0000    0    12.011    3.471945   -0.361524    0.043617
   4 H     1.0000    0     1.008   -2.812563    0.024389    0.010426
   5 H     1.0000    0     1.008    1.147572    2.835498   -0.000198
   6 H     1.0000    0     1.008    3.746208   -2.461788    0.141028
   7 H     1.0000    0     1.008    4.698301    1.161802   -0.170952

--------------------------------
INTERNAL COORDINATES (ANGSTROEM)
--------------------------------
 C      0   0   0     0.000000000000     0.00000000     0.00000000
 O      1   0   0     1.142533239181     0.00000000     0.00000000
 C      1   2   0     1.515708796835   124.47649903     0.00000000
 C      3   1   2     1.377052502803   115.21620550   348.88248330
 H      1   2   3     1.010768988637   119.03147217   168.74362940
 H      3   1   2     1.050107390651   125.69077485   178.45960755
 H      4   3   1     1.122032846223   125.34810720     3.56410364
 H      4   3   1     1.041082738550   100.62039579   178.05451405

---------------------------
INTERNAL COORDINATES (A.U.)
---------------------------
 C      0   0   0     0.000000000000     0.00000000     0.00000000
 O      1   0   0     2.159074920955     0.00000000     0.00000000
 C      1   2   0     2.864274524793   124.47649903     0.00000000
 C      3   1   2     2.602252102329   115.21620550   348.88248330
 H      1   2   3     1.910076573184   119.03147217   168.74362940
 H      3   1   2     1.984415379536   125.69077485   178.45960755
 H      4   3   1     2.120334792626   125.34810720     3.56410364
 H      4   3   1     1.967361258612   100.62039579   178.05451405

---------------------
BASIS SET INFORMATION
---------------------
There are 3 groups of distinct atoms

 Group   1 Type C   : 10s4p contracted to 3s2p pattern {631/31}
 Group   2 Type O   : 10s4p contracted to 3s2p pattern {631/31}
 Group   3 Type H   : 4s contracted to 2s pattern {31}

Atom   0C    basis set group =>   1
Atom   1O    basis set group =>   2
Atom   2C    basis set group =>   1
Atom   3C    basis set group =>   1
Atom   4H    basis set group =>   3
Atom   5H    basis set group =>   3
Atom   6H    basis set group =>   3
Atom   7H    basis set group =>   3
---------------------------------
AUXILIARY/J BASIS SET INFORMATION
---------------------------------
There are 3 groups of distinct atoms

 Group   1 Type C   : 12s5p4d2f1g contracted to 6s4p3d1f1g pattern {711111/2111/211/2/1}
 Group   2 Type O   : 12s5p4d2f1g contracted to 6s4p3d1f1g pattern {711111/2111/211/2/1}
 Group   3 Type H   : 5s2p1d contracted to 3s1p1d pattern {311/2/1}

Atom   0C    basis set group =>   1
Atom   1O    basis set group =>   2
Atom   2C    basis set group =>   1
Atom   3C    basis set group =>   1
Atom   4H    basis set group =>   3
Atom   5H    basis set group =>   3
Atom   6H    basis set group =>   3
Atom   7H    basis set group =>   3
------------------------------------------------------------------------------
                           ORCA GTO INTEGRAL CALCULATION
                           -- RI-GTO INTEGRALS CHOSEN --
------------------------------------------------------------------------------
------------------------------------------------------------------------------
                   ___                                                        
                  /   \      - P O W E R E D   B Y -                         
                 /     \                                                     
                 |  |  |   _    _      __       _____    __    __             
                 |  |  |  | |  | |    /  \     |  _  \  |  |  /  |          
                  \  \/   | |  | |   /    \    | | | |  |  | /  /          
                 / \  \   | |__| |  /  /\  \   | |_| |  |  |/  /          
                |  |  |   |  __  | /  /__\  \  |    /   |      \           
                |  |  |   | |  | | |   __   |  |    \   |  |\   \          
                \     /   | |  | | |  |  |  |  | |\  \  |  | \   \       
                 \___/    |_|  |_| |__|  |__|  |_| \__\ |__|  \__/        
                                                                              
                      - O R C A' S   B I G   F R I E N D -                    
                                      &                                       
                       - I N T E G R A L  F E E D E R -                       
                                                                              
 v1 FN, 2020, v2 2021                                                         
------------------------------------------------------------------------------


Reading SHARK input file acrolien.877.SHARKINP.tmp ... ok
----------------------
SHARK INTEGRAL PACKAGE
----------------------

Number of atoms                             ...      8
Number of basis functions                   ...     44
Number of shells                            ...     28
Maximum angular momentum                    ...      1
Integral batch strategy                     ... SHARK/LIBINT Hybrid
RI-J (if used) integral strategy            ... SPLIT-RIJ (Revised 2003 algorithm where possible)
Printlevel                                  ...      1
Contraction scheme used                     ... SEGMENTED contraction
Coulomb Range Separation                    ... NOT USED
Exchange Range Separation                   ... NOT USED
Finite Nucleus Model                        ... NOT USED
Auxiliary Coulomb fitting basis             ... AVAILABLE
   # of basis functions in Aux-J            ...    240
   # of shells in Aux-J                     ...     80
   Maximum angular momentum in Aux-J        ...      4
Auxiliary J/K fitting basis                 ... NOT available
Auxiliary Correlation fitting basis         ... NOT available
Auxiliary 'external' fitting basis          ... NOT available
Integral threshold                          ...     2.500000e-11
Primitive cut-off                           ...     2.500000e-12
Primitive pair pre-selection threshold      ...     2.500000e-12

Calculating pre-screening integrals         ... done (  0.0 sec) Dimension = 28
Organizing shell pair data                  ... done (  0.1 sec)
Shell pair information
Total number of shell pairs                 ...       406
Shell pairs after pre-screening             ...       402
Total number of primitive shell pairs       ...      2724
Primitive shell pairs kept                  ...      2027
          la=0 lb=0:    206 shell pairs
          la=1 lb=0:    160 shell pairs
          la=1 lb=1:     36 shell pairs

Calculating one electron integrals          ... done (  0.0 sec)
Calculating RI/J V-Matrix + Cholesky decomp.... done (  0.1 sec)
Calculating Nuclear repulsion               ... done (  0.0 sec) ENN=    106.509745775007 Eh

SHARK setup successfully completed in   1.3 seconds

Maximum memory used throughout the entire GTOINT-calculation: 8.3 MB
-------------------------------------------------------------------------------
                                 ORCA SCF
-------------------------------------------------------------------------------

------------
SCF SETTINGS
------------
Hamiltonian:
 Density Functional     Method          .... DFT(GTOs)
 Exchange Functional    Exchange        .... B88
   X-Alpha parameter    XAlpha          ....  0.666667
   Becke's b parameter  XBeta           ....  0.004200
 Correlation Functional Correlation     .... LYP
 LDA part of GGA corr.  LDAOpt          .... VWN-5
 Gradients option       PostSCFGGA      .... off
 Hybrid DFT is turned on
   Fraction HF Exchange ScalHFX         ....  0.200000
   Scaling of DF-GGA-X  ScalDFX         ....  0.720000
   Scaling of DF-GGA-C  ScalDFC         ....  0.810000
   Scaling of DF-LDA-C  ScalLDAC        ....  1.000000
   Perturbative correction              ....  0.000000
   Density functional embedding theory  .... OFF
   NL short-range parameter             ....  4.800000
 RI-approximation to the Coulomb term is turned on
   Number of AuxJ basis functions       .... 240
   RIJ-COSX (HFX calculated with COS-X)).... on


General Settings:
 Integral files         IntName         .... acrolien.877
 Hartree-Fock type      HFTyp           .... RHF
 Total Charge           Charge          ....    0
 Multiplicity           Mult            ....    1
 Number of Electrons    NEL             ....   30
 Basis Dimension        Dim             ....   44
 Nuclear Repulsion      ENuc            ....    106.5097457750 Eh

Convergence Acceleration:
 DIIS                   CNVDIIS         .... on
   Start iteration      DIISMaxIt       ....    12
   Startup error        DIISStart       ....  0.200000
   # of expansion vecs  DIISMaxEq       ....     5
   Bias factor          DIISBfac        ....   1.050
   Max. coefficient     DIISMaxC        ....  10.000
 Trust-Rad. Augm. Hess. CNVTRAH         .... auto
   Auto Start mean grad. ratio tolernc. ....  1.125000
   Auto Start start iteration           ....    20
   Auto Start num. interpolation iter.  ....    10
   Max. Number of Micro iterations      ....    16
   Max. Number of Macro iterations      .... Maxiter - #DIIS iter
   Number of Davidson start vectors     ....     2
   Converg. threshold I  (grad. norm)   ....   1.000e-05
   Converg. threshold II (energy diff.) ....   1.000e-08
   Grad. Scal. Fac. for Micro threshold ....   0.100
   Minimum threshold for Micro iter.    ....   0.010
   NR start threshold (gradient norm)   ....   0.001
   Initial trust radius                 ....   0.400
   Minimum AH scaling param. (alpha)    ....   1.000
   Maximum AH scaling param. (alpha)    .... 1000.000
   Orbital update algorithm             .... Taylor
   White noise on init. David. guess    .... on
   Maximum white noise                  ....   0.010
   Quad. conv. algorithm                .... NR
 SOSCF                  CNVSOSCF        .... on
   Start iteration      SOSCFMaxIt      ....   150
   Startup grad/error   SOSCFStart      ....  0.003300
 Level Shifting         CNVShift        .... on
   Level shift para.    LevelShift      ....    0.2500
   Turn off err/grad.   ShiftErr        ....    0.0010
 Zerner damping         CNVZerner       .... off
 Static damping         CNVDamp         .... on
   Fraction old density DampFac         ....    0.7000
   Max. Damping (<1)    DampMax         ....    0.9800
   Min. Damping (>=0)   DampMin         ....    0.0000
   Turn off err/grad.   DampErr         ....    0.1000
 Fernandez-Rico         CNVRico         .... off

SCF Procedure:
 Maximum # iterations   MaxIter         ....   500
 SCF integral mode      SCFMode         .... Direct
   Integral package                     .... SHARK and LIBINT hybrid scheme
 Reset frequency        DirectResetFreq ....    20
 Integral Threshold     Thresh          ....  2.500e-11 Eh
 Primitive CutOff       TCut            ....  2.500e-12 Eh

Convergence Tolerance:
 Convergence Check Mode ConvCheckMode   .... Total+1el-Energy
 Convergence forced     ConvForced      .... 1
 Energy Change          TolE            ....  1.000e-08 Eh
 1-El. energy change                    ....  1.000e-05 Eh
 Orbital Gradient       TolG            ....  1.000e-05
 Orbital Rotation angle TolX            ....  1.000e-05
 DIIS Error             TolErr          ....  5.000e-07


Diagonalization of the overlap matrix:
Smallest eigenvalue                        ... 5.488e-03
Time for diagonalization                   ...    0.059 sec
Threshold for overlap eigenvalues          ... 1.000e-08
Number of eigenvalues below threshold      ... 0
Time for construction of square roots      ...    0.067 sec
Total time needed                          ...    0.127 sec

Time for model grid setup =    0.085 sec

------------------------------
INITIAL GUESS: MODEL POTENTIAL
------------------------------
Loading Hartree-Fock densities                     ... done
Calculating cut-offs                               ... done
Initializing the effective Hamiltonian             ... done
Setting up the integral package (SHARK)            ... done
Starting the Coulomb interaction                   ... done (   0.6 sec)
Reading the grid                                   ... done
Mapping shells                                     ... done
Starting the XC term evaluation                    ... done (   0.0 sec)
  promolecular density results
     # of electrons  =     29.999511264
     EX              =    -24.785265507
     EC              =     -0.999496745
     EX+EC           =    -25.784762252
Transforming the Hamiltonian                       ... done (   0.4 sec)
Diagonalizing the Hamiltonian                      ... done (   0.0 sec)
Back transforming the eigenvectors                 ... done (   0.0 sec)
Now organizing SCF variables                       ... done
                      ------------------
                      INITIAL GUESS DONE (   1.3 sec)
                      ------------------
-------------------
DFT GRID GENERATION
-------------------

General Integration Accuracy     IntAcc      ... 4.388
Radial Grid Type                 RadialGrid  ... OptM3 with GC (2021)
Angular Grid (max. ang.)         AngularGrid ... 4 (Lebedev-302)
Angular grid pruning method      GridPruning ... 4 (adaptive)
Weight generation scheme         WeightScheme... Becke
Basis function cutoff            BFCut       ... 1.0000e-11
Integration weight cutoff        WCut        ... 1.0000e-14
Angular grids for H and He will be reduced by one unit
Partially contracted basis set               ... off
Rotationally invariant grid construction     ... off

Total number of grid points                  ...    37361
Total number of batches                      ...      587
Average number of points per batch           ...       63
Average number of grid points per atom       ...     4670
Time for grid setup =    0.618 sec

--------------------
COSX GRID GENERATION
--------------------

GRIDX 1
-------
General Integration Accuracy     IntAcc      ... 3.816
Radial Grid Type                 RadialGrid  ... OptM3 with GC (2021)
Angular Grid (max. ang.)         AngularGrid ... 1 (Lebedev-50)
Angular grid pruning method      GridPruning ... 4 (adaptive)
Weight generation scheme         WeightScheme... Becke
Basis function cutoff            BFCut       ... 1.0000e-11
Integration weight cutoff        WCut        ... 1.0000e-14
Angular grids for H and He will be reduced by one unit
Partially contracted basis set               ... on
Rotationally invariant grid construction     ... off

Total number of grid points                  ...     4789
Total number of batches                      ...       79
Average number of points per batch           ...       60
Average number of grid points per atom       ...      599
UseSFitting                                  ... on

GRIDX 2
-------
General Integration Accuracy     IntAcc      ... 4.020
Radial Grid Type                 RadialGrid  ... OptM3 with GC (2021)
Angular Grid (max. ang.)         AngularGrid ... 2 (Lebedev-110)
Angular grid pruning method      GridPruning ... 4 (adaptive)
Weight generation scheme         WeightScheme... Becke
Basis function cutoff            BFCut       ... 1.0000e-11
Integration weight cutoff        WCut        ... 1.0000e-14
Angular grids for H and He will be reduced by one unit
Partially contracted basis set               ... on
Rotationally invariant grid construction     ... off

Total number of grid points                  ...    10535
Total number of batches                      ...      169
Average number of points per batch           ...       62
Average number of grid points per atom       ...     1317
UseSFitting                                  ... on

GRIDX 3
-------
General Integration Accuracy     IntAcc      ... 4.338
Radial Grid Type                 RadialGrid  ... OptM3 with GC (2021)
Angular Grid (max. ang.)         AngularGrid ... 3 (Lebedev-194)
Angular grid pruning method      GridPruning ... 4 (adaptive)
Weight generation scheme         WeightScheme... Becke
Basis function cutoff            BFCut       ... 1.0000e-11
Integration weight cutoff        WCut        ... 1.0000e-14
Angular grids for H and He will be reduced by one unit
Partially contracted basis set               ... on
Rotationally invariant grid construction     ... off

Total number of grid points                  ...    23247
Total number of batches                      ...      366
Average number of points per batch           ...       63
Average number of grid points per atom       ...     2906
UseSFitting                                  ... on

Time for X-Grid setup             =    2.109 sec

--------------
SCF ITERATIONS
--------------
ITER       Energy         Delta-E        Max-DP      RMS-DP      [F,P]     Damp
               ***  Starting incremental Fock matrix formation  ***
  0   -191.5747122598   0.000000000000 0.09709705  0.00742168  0.2502130 0.7000
  1   -191.6320809796  -0.057368719830 0.05637051  0.00474427  0.1008011 0.7000
                               ***Turning on DIIS***
  2   -191.6527307950  -0.020649815423 0.07281931  0.00657609  0.0328344 0.0000
  3   -191.6890242549  -0.036293459851 0.04376247  0.00349648  0.0510739 0.0000
  4   -191.6949096303  -0.005885375399 0.00897446  0.00101467  0.0193815 0.0000
                      *** Initiating the SOSCF procedure ***
                           *** Shutting down DIIS ***
                      *** Re-Reading the Fockian *** 
                      *** Removing any level shift *** 
ITER      Energy       Delta-E        Grad      Rot      Max-DP    RMS-DP
  5   -191.69563666  -0.0007270288  0.000449  0.000449  0.003283  0.000243
               *** Restarting incremental Fock matrix formation ***
  6   -191.69568380  -0.0000471408  0.000368  0.001072  0.001476  0.000139
  7   -191.69568327   0.0000005286  0.000500  0.000519  0.000838  0.000060
  8   -191.69568519  -0.0000019232  0.000081  0.000171  0.000283  0.000031
  9   -191.69568516   0.0000000366  0.000092  0.000083  0.000159  0.000013
 10   -191.69568530  -0.0000001430  0.000009  0.000040  0.000046  0.000003
 11   -191.69568530   0.0000000023  0.000017  0.000026  0.000029  0.000002
                  ***Gradient check signals convergence***
              ***Rediagonalizing the Fockian in SOSCF/NRSCF***

               *****************************************************
               *                     SUCCESS                       *
               *           SCF CONVERGED AFTER  12 CYCLES          *
               *****************************************************

Old exchange energy                            =     -5.039108417 Eh
New exchange energy                            =     -5.039098955 Eh
Exchange energy change after final integration =      0.000009462 Eh
Total energy after final integration           =   -191.695675840 Eh
Final COS-X integration done in                =     0.816 sec

----------------
TOTAL SCF ENERGY
----------------

Total Energy       :         -191.69567584 Eh           -5216.30453 eV

Components:
Nuclear Repulsion  :          106.50974578 Eh            2898.27753 eV
Electronic Energy  :         -298.20542161 Eh           -8114.58206 eV
One Electron Energy:         -469.88128072 Eh          -12786.11968 eV
Two Electron Energy:          171.67585911 Eh            4671.53762 eV
Max COSX asymmetry :            0.00000077 Eh               0.00002 eV

Virial components:
Potential Energy   :         -382.96573716 Eh          -10421.02750 eV
Kinetic Energy     :          191.27006132 Eh            5204.72297 eV
Virial Ratio       :            2.00222520


DFT components:
N(Alpha)           :       14.999996816168 electrons
N(Beta)            :       14.999996816168 electrons
N(Total)           :       29.999993632336 electrons
E(X)               :      -20.049781948023 Eh       
E(C)               :       -1.187429749764 Eh       
E(XC)              :      -21.237211697787 Eh       
DFET-embed. en.    :        0.000000000000 Eh       

---------------
SCF CONVERGENCE
---------------

  Last Energy change         ...   -3.1525e-09  Tolerance :   1.0000e-08
  Last MAX-Density change    ...    2.2204e-15  Tolerance :   1.0000e-07
  Last RMS-Density change    ...    1.1217e-16  Tolerance :   5.0000e-09
  Last Orbital Gradient      ...    3.7015e-07  Tolerance :   1.0000e-05
  Last Orbital Rotation      ...    5.5724e-07  Tolerance :   1.0000e-05

             **** THE GBW FILE WAS UPDATED (acrolien.877.gbw) ****
             **** DENSITY acrolien.877.scfp WAS UPDATED ****
             **** ENERGY FILE WAS UPDATED (acrolien.877.en.tmp) ****
             **** THE GBW FILE WAS UPDATED (acrolien.877.gbw) ****
             **** DENSITY acrolien.877.scfp WAS UPDATED ****
----------------
ORBITAL ENERGIES
----------------

  NO   OCC          E(Eh)            E(eV) 
   0   2.0000     -19.144380      -520.9451 
   1   2.0000     -10.262943      -279.2689 
   2   2.0000     -10.202359      -277.6203 
   3   2.0000     -10.194424      -277.4044 
   4   2.0000      -1.111476       -30.2448 
   5   2.0000      -0.790975       -21.5235 
   6   2.0000      -0.652164       -17.7463 
   7   2.0000      -0.552860       -15.0441 
   8   2.0000      -0.530499       -14.4356 
   9   2.0000      -0.447824       -12.1859 
  10   2.0000      -0.422977       -11.5098 
  11   2.0000      -0.408101       -11.1050 
  12   2.0000      -0.396204       -10.7813 
  13   2.0000      -0.278447        -7.5769 
  14   2.0000      -0.249364        -6.7855 
  15   0.0000      -0.056295        -1.5319 
  16   0.0000       0.065167         1.7733 
  17   0.0000       0.111401         3.0314 
  18   0.0000       0.127565         3.4712 
  19   0.0000       0.173833         4.7302 
  20   0.0000       0.209819         5.7095 
  21   0.0000       0.261558         7.1173 
  22   0.0000       0.308168         8.3857 
  23   0.0000       0.319695         8.6993 
  24   0.0000       0.517273        14.0757 
  25   0.0000       0.545607        14.8467 
  26   0.0000       0.584352        15.9010 
  27   0.0000       0.621646        16.9159 
  28   0.0000       0.636693        17.3253 
  29   0.0000       0.652354        17.7515 
  30   0.0000       0.705277        19.1916 
  31   0.0000       0.788871        21.4663 
  32   0.0000       0.839942        22.8560 
  33   0.0000       0.868961        23.6456 
  34   0.0000       0.917623        24.9698 
  35   0.0000       0.961933        26.1755 
  36   0.0000       0.967578        26.3291 
  37   0.0000       0.986160        26.8348 
  38   0.0000       1.003894        27.3173 
  39   0.0000       1.130100        30.7516 
  40   0.0000       1.142085        31.0777 
  41   0.0000       1.203283        32.7430 
  42   0.0000       1.292837        35.1799 
  43   0.0000       1.790100        48.7111 

                    ********************************
                    * MULLIKEN POPULATION ANALYSIS *
                    ********************************

-----------------------
MULLIKEN ATOMIC CHARGES
-----------------------
   0 C :    0.182847
   1 O :   -0.320900
   2 C :   -0.173162
   3 C :   -0.234673
   4 H :    0.084786
   5 H :    0.140799
   6 H :    0.187428
   7 H :    0.132876
Sum of atomic charges:    0.0000000

--------------------------------
MULLIKEN REDUCED ORBITAL CHARGES
--------------------------------
  0 C s       :     3.141783  s :     3.141783
      pz      :     0.798574  p :     2.675370
      px      :     1.047185
      py      :     0.829610
  1 O s       :     3.902242  s :     3.902242
      pz      :     1.279234  p :     4.418658
      px      :     1.794728
      py      :     1.344696
  2 C s       :     3.234733  s :     3.234733
      pz      :     1.019816  p :     2.938429
      px      :     0.944037
      py      :     0.974577
  3 C s       :     3.291045  s :     3.291045
      pz      :     0.900189  p :     2.943628
      px      :     1.019848
      py      :     1.023592
  4 H s       :     0.915214  s :     0.915214
  5 H s       :     0.859201  s :     0.859201
  6 H s       :     0.812572  s :     0.812572
  7 H s       :     0.867124  s :     0.867124


                     *******************************
                     * LOEWDIN POPULATION ANALYSIS *
                     *******************************

----------------------
LOEWDIN ATOMIC CHARGES
----------------------
   0 C :    0.105967
   1 O :   -0.195456
   2 C :   -0.199035
   3 C :   -0.176702
   4 H :    0.062483
   5 H :    0.121971
   6 H :    0.152087
   7 H :    0.128685

-------------------------------
LOEWDIN REDUCED ORBITAL CHARGES
-------------------------------
  0 C s       :     2.947194  s :     2.947194
      pz      :     0.801832  p :     2.946839
      px      :     1.096154
      py      :     1.048854
  1 O s       :     3.581457  s :     3.581457
      pz      :     1.280151  p :     4.613999
      px      :     1.843661
      py      :     1.490187
  2 C s       :     2.997898  s :     2.997898
      pz      :     1.012612  p :     3.201137
      px      :     1.090205
      py      :     1.098320
  3 C s       :     3.019571  s :     3.019571
      pz      :     0.905208  p :     3.157132
      px      :     1.126811
      py      :     1.125113
  4 H s       :     0.937517  s :     0.937517
  5 H s       :     0.878029  s :     0.878029
  6 H s       :     0.847913  s :     0.847913
  7 H s       :     0.871315  s :     0.871315


                      *****************************
                      * MAYER POPULATION ANALYSIS *
                      *****************************

  NA   - Mulliken gross atomic population
  ZA   - Total nuclear charge
  QA   - Mulliken gross atomic charge
  VA   - Mayer's total valence
  BVA  - Mayer's bonded valence
  FA   - Mayer's free valence

  ATOM       NA         ZA         QA         VA         BVA        FA
  0 C      5.8172     6.0000     0.1828     3.8089     3.8089     0.0000
  1 O      8.3209     8.0000    -0.3209     2.0782     2.0782     0.0000
  2 C      6.1732     6.0000    -0.1732     3.7443     3.7443     0.0000
  3 C      6.2347     6.0000    -0.2347     3.8379     3.8379     0.0000
  4 H      0.9152     1.0000     0.0848     0.9167     0.9167     0.0000
  5 H      0.8592     1.0000     0.1408     0.9367     0.9367    -0.0000
  6 H      0.8126     1.0000     0.1874     0.9443     0.9443    -0.0000
  7 H      0.8671     1.0000     0.1329     0.9431     0.9431    -0.0000

  Mayer bond orders larger than 0.100000
B(  0-C ,  1-O ) :   1.9267 B(  0-C ,  2-C ) :   0.9594 B(  0-C ,  4-H ) :   0.8945 
B(  2-C ,  3-C ) :   1.8675 B(  2-C ,  5-H ) :   0.9345 B(  3-C ,  6-H ) :   0.9266 
B(  3-C ,  7-H ) :   0.9478 

-------
TIMINGS
-------

Total SCF time: 0 days 0 hours 0 min 54 sec 

Total time                  ....      54.823 sec
Sum of individual times     ....      43.968 sec  ( 80.2%)

Fock matrix formation       ....      37.576 sec  ( 68.5%)
  Split-RI-J                ....       0.588 sec  (  1.6% of F)
  Chain of spheres X        ....       4.486 sec  ( 11.9% of F)
  XC integration            ....      14.724 sec  ( 39.2% of F)
    Basis function eval.    ....       0.995 sec  (  6.8% of XC)
    Density eval.           ....       0.519 sec  (  3.5% of XC)
    XC-Functional eval.     ....       0.551 sec  (  3.7% of XC)
    XC-Potential eval.      ....       0.241 sec  (  1.6% of XC)
Diagonalization             ....       0.003 sec  (  0.0%)
Density matrix formation    ....       0.000 sec  (  0.0%)
Population analysis         ....       1.805 sec  (  3.3%)
Initial guess               ....       1.204 sec  (  2.2%)
Orbital Transformation      ....       0.000 sec  (  0.0%)
Orbital Orthonormalization  ....       0.000 sec  (  0.0%)
DIIS solution               ....       0.001 sec  (  0.0%)
SOSCF solution              ....       0.566 sec  (  1.0%)
Grid generation             ....       2.812 sec  (  5.1%)

Maximum memory used throughout the entire SCF-calculation: 46.8 MB
------------------------------------------------------------------------------
                        ORCA TD-DFT/TDA CALCULATION
------------------------------------------------------------------------------

Input orbitals are from        ... acrolien.877.gbw
CI-vector output               ... acrolien.877.cis
Tamm-Dancoff approximation     ... operative
CIS-Integral strategy          ... AO-integrals
Integral handling              ... AO integral Direct
Max. core memory used          ... 512 MB
Reference state                ... RHF
Generation of triplets         ... off
Follow IRoot                   ... off
Number of operators            ... 1
Orbital ranges used for CIS calculation:
 Operator 0:  Orbitals   4... 14  to  15... 43
XAS localization array:
 Operator 0:  Orbitals  -1... -1

-------------------
XC-INTEGRATION GRID
-------------------

General Integration Accuracy     IntAcc      ... 3.467
Radial Grid Type                 RadialGrid  ... OptM3 with GC (2021)
Angular Grid (max. ang.)         AngularGrid ... 1 (Lebedev-50)
Angular grid pruning method      GridPruning ... 4 (adaptive)
Weight generation scheme         WeightScheme... Becke
Basis function cutoff            BFCut       ... 1.0000e-11
Integration weight cutoff        WCut        ... 1.0000e-14
Angular grids for H and He will be reduced by one unit
Partially contracted basis set               ... off
Rotationally invariant grid construction     ... off

Total number of grid points                  ...     5478
Total number of batches                      ...       90
Average number of points per batch           ...       60
Average number of grid points per atom       ...      685

---------------------
COSX-INTEGRATION GRID
---------------------

General Integration Accuracy     IntAcc      ... 3.067
Radial Grid Type                 RadialGrid  ... OptM3 with GC (2021)
Angular Grid (max. ang.)         AngularGrid ... 1 (Lebedev-50)
Angular grid pruning method      GridPruning ... 4 (adaptive)
Weight generation scheme         WeightScheme... Becke
Basis function cutoff            BFCut       ... 1.0000e-11
Integration weight cutoff        WCut        ... 1.0000e-14
Angular grids for H and He will be reduced by one unit
Partially contracted basis set               ... on
Rotationally invariant grid construction     ... off

Total number of grid points                  ...     2501
Total number of batches                      ...       45
Average number of points per batch           ...       55
Average number of grid points per atom       ...      313

---------------
TD-DFT XC SETUP
---------------

DFT calculation                         ... on
Name of the grid file                   ... acrolien.877.grid_cis.tmp
Exchange functional (TD-DFT)            ... B88
   X-Alpha parameter    XAlpha (TD-DFT) ...  0.666667
   Becke's b parameter  XBeta (TD-DFT)  ...  0.004200
Correlation functional (TD-DFT)         ... LYP
 LDA part of GGA corr.  LDAOpt (TD-DFT) ... VWN-5
Hybrid DFT                              ... on
   Exchange mixing (TD-DFT)             ...  0.200
   GGA exch. scaling (TD-DFT)           ...  0.720
   GGA corr. scaling (TD-DFT)           ...  0.810

Building densities             ... done
Calculating rho(r) on the grid ... done
Building xc-kernel on the grid ... done
                    *** TD-DFT CALCULATION INITIALIZED ***

------------------------
DAVIDSON-DIAGONALIZATION
------------------------

Dimension of the eigenvalue problem            ...    319
Number of roots to be determined               ...      1
Maximum size of the expansion space            ...     10
Maximum number of iterations                   ...    100
Convergence tolerance for the residual         ...    2.500e-07
Convergence tolerance for the energies         ...    2.500e-07
Orthogonality tolerance                        ...    1.000e-14
Level Shift                                    ...    0.000e+00
Constructing the preconditioner                ... o.k.
Building the initial guess                     ... o.k.
Number of trial vectors determined             ...     10


                       ****Iteration    0****

   Memory handling for direct AO based CIS:
   Memory per vector needed      ...     1 MB
   Memory needed                 ...     0 MB
   Memory available              ...   512 MB
   Number of vectors per batch   ...   512
   Number of batches             ...     1
   Time for densities:            0.000
   Time for RI-J (Direct):        0.043
   Time for K (COSX):             0.525
   Time for XC-Integration:       0.038
   Time for Sigma-Completion:     0.000
   Size of expansion space: 3
   Lowest Energy          :     0.136581004007
   Maximum Energy change  :     0.136581004007 (vector 0)
   Maximum residual norm  :     0.000610606925

                       ****Iteration    1****
   Time for densities:            0.000
   Time for RI-J (Direct):        0.035
   Time for K (COSX):             0.108
   Time for XC-Integration:       0.022
   Time for Sigma-Completion:     0.000
   Size of expansion space: 4
   Lowest Energy          :     0.135656354835
   Maximum Energy change  :     0.000924649172 (vector 0)
   Maximum residual norm  :     0.000098240218

                       ****Iteration    2****
   Time for densities:            0.000
   Time for RI-J (Direct):        0.035
   Time for K (COSX):             0.547
   Time for XC-Integration:       0.022
   Time for Sigma-Completion:     0.000
   Size of expansion space: 5
   Lowest Energy          :     0.135559535642
   Maximum Energy change  :     0.000096819193 (vector 0)
   Maximum residual norm  :     0.000006185941

                       ****Iteration    3****
   Time for densities:            0.000
   Time for RI-J (Direct):        0.034
   Time for K (COSX):             0.310
   Time for XC-Integration:       0.022
   Time for Sigma-Completion:     0.000
   Size of expansion space: 6
   Lowest Energy          :     0.135552325000
   Maximum Energy change  :     0.000007210643 (vector 0)
   Maximum residual norm  :     0.000000507000

                       ****Iteration    4****
   Time for densities:            0.000
   Time for RI-J (Direct):        0.034
   Time for K (COSX):             0.215
   Time for XC-Integration:       0.023
   Time for Sigma-Completion:     0.000
   Size of expansion space: 7
   Lowest Energy          :     0.135551691757
   Maximum Energy change  :     0.000000633243 (vector 0)
   Maximum residual norm  :     0.000000009696

      *** CONVERGENCE OF RESIDUAL NORM REACHED ***

Storing the converged CI vectors               ... acrolien.877.cis1

                 *** DAVIDSON DONE ***

Total time for solving the CIS problem:     2.360sec

------------------------------------
TD-DFT/TDA EXCITED STATES (SINGLETS)
------------------------------------

the weight of the individual excitations are printed if larger than 1.0e-02

STATE  1:  E=   0.135552 au      3.689 eV    29750.2 cm**-1 <S**2> =   0.000000
    14a ->  15a  :     0.982568 (c= -0.99124555)
    14a ->  16a  :     0.014907 (c=  0.12209602)


-----------------------------
TD-DFT/TDA-EXCITATION SPECTRA
-----------------------------

Center of mass = (  0.5774, -0.9090, -0.0002)
Calculating the Dipole integrals                  ... done
Transforming integrals                            ... done
Calculating the Linear Momentum integrals         ... done
Transforming integrals                            ... done
Calculating angular momentum integrals            ... done
Transforming integrals                            ... done

-----------------------------------------------------------------------------
         ABSORPTION SPECTRUM VIA TRANSITION ELECTRIC DIPOLE MOMENTS
-----------------------------------------------------------------------------
State   Energy    Wavelength  fosc         T2        TX        TY        TZ  
        (cm-1)      (nm)                 (au**2)    (au)      (au)      (au) 
-----------------------------------------------------------------------------
   1   29750.2    336.1   0.000300940   0.00333  -0.05528  -0.01182  -0.01159

-----------------------------------------------------------------------------
         ABSORPTION SPECTRUM VIA TRANSITION VELOCITY DIPOLE MOMENTS
-----------------------------------------------------------------------------
State   Energy    Wavelength   fosc        P2         PX        PY        PZ  
        (cm-1)      (nm)                 (au**2)     (au)      (au)      (au) 
-----------------------------------------------------------------------------
   1   29750.2    336.1   0.000638698   0.00013  -0.00053  -0.00061   0.01137

-------------------------------------------------------------------
                             CD SPECTRUM
-------------------------------------------------------------------
State  Energy     Wavelength     R         MX        MY        MZ   
       (cm-1)       (nm)     (1e40*cgs)   (au)      (au)      (au)  
-------------------------------------------------------------------
   1   29750.2    336.1      2.63204  -0.03205  -0.28580  -0.03731

-------------------------------------------------------------------
         CD SPECTRUM VIA TRANSITION VELOCITY DIPOLE MOMENTS        
-------------------------------------------------------------------
State  Energy     Wavelength     R         MX        MY        MZ   
       (cm-1)       (nm)     (1e40*cgs)   (au)      (au)      (au)  
-------------------------------------------------------------------
   1   29750.2    336.1     -0.80654  -0.03205  -0.28580  -0.03731

Total run time:        3.514 sec

           *** ORCA-CIS/TD-DFT FINISHED WITHOUT ERROR ***

Maximum memory used throughout the entire CIS-calculation: 42.9 MB

-----------------------
CIS/TD-DFT TOTAL ENERGY
-----------------------

    E(SCF)  =   -191.695675840 Eh
    DE(CIS) =      0.135551692 Eh (Root  1)
    ----------------------------- ---------
    E(tot)  =   -191.560124148 Eh


-------------------------   --------------------
FINAL SINGLE POINT ENERGY      -191.560124148146
-------------------------   --------------------


                            ***************************************
                            *     ORCA property calculations      *
                            ***************************************

                                    ---------------------
                                    Active property flags
                                    ---------------------
   (+) Dipole Moment


------------------------------------------------------------------------------
                       ORCA ELECTRIC PROPERTIES CALCULATION
------------------------------------------------------------------------------

Dipole Moment Calculation                       ... on
Quadrupole Moment Calculation                   ... off
Polarizability Calculation                      ... off
GBWName                                         ... acrolien.877.gbw
Electron density                                ... acrolien.877.scfp
The origin for moment calculation is the CENTER OF MASS  = ( 0.577418, -0.909004 -0.000224)

-------------
DIPOLE MOMENT
-------------
                                X             Y             Z
Electronic contribution:     -1.89651      -1.63367       0.05673
Nuclear contribution   :      2.20637       2.56313      -0.00967
                        -----------------------------------------
Total Dipole Moment    :      0.30986       0.92946       0.04706
                        -----------------------------------------
Magnitude (a.u.)       :      0.98088
Magnitude (Debye)      :      2.49319



--------------------
Rotational spectrum 
--------------------
 
Rotational constants in cm-1:     0.760150     0.218373     0.169897 
Rotational constants in MHz : 22788.737053  6546.660788  5093.397322 

 Dipole components along the rotational axes: 
x,y,z [a.u.] :     0.752376     0.627335     0.049982 
x,y,z [Debye]:     1.912388     1.594560     0.127044 

 

Timings for individual modules:

Sum of individual times         ...       60.666 sec (=   1.011 min)
GTO integral calculation        ...        1.416 sec (=   0.024 min)   2.3 %
SCF iterations                  ...       55.695 sec (=   0.928 min)  91.8 %
CIS module                      ...        3.554 sec (=   0.059 min)   5.9 %
                             ****ORCA TERMINATED NORMALLY****
TOTAL RUN TIME: 0 days 0 hours 1 minutes 1 seconds 97 msec
