
                                 *****************
                                 * O   R   C   A *
                                 *****************

                                            #,                                       
                                            ###                                      
                                            ####                                     
                                            #####                                    
                                            ######                                   
                                           ########,                                 
                                     ,,################,,,,,                         
                               ,,#################################,,                 
                          ,,##########################################,,             
                       ,#########################################, ''#####,          
                    ,#############################################,,   '####,        
                  ,##################################################,,,,####,       
                ,###########''''           ''''###############################       
              ,#####''   ,,,,##########,,,,          '''####'''          '####       
            ,##' ,,,,###########################,,,                        '##       
           ' ,,###''''                  '''############,,,                           
         ,,##''                                '''############,,,,        ,,,,,,###''
      ,#''                                            '''#######################'''  
     '                                                          ''''####''''         
             ,#######,   #######,   ,#######,      ##                                
            ,#'     '#,  ##    ##  ,#'     '#,    #''#        ######   ,####,        
            ##       ##  ##   ,#'  ##            #'  '#       #        #'  '#        
            ##       ##  #######   ##           ,######,      #####,   #    #        
            '#,     ,#'  ##    ##  '#,     ,#' ,#      #,         ##   #,  ,#        
             '#######'   ##     ##  '#######'  #'      '#     #####' # '####'        



                  #######################################################
                  #                        -***-                        #
                  #          Department of theory and spectroscopy      #
                  #    Directorship and core code : Frank Neese         #
                  #        Max Planck Institute fuer Kohlenforschung    #
                  #                Kaiser Wilhelm Platz 1               #
                  #                 D-45470 Muelheim/Ruhr               #
                  #                      Germany                        #
                  #                                                     #
                  #                  All rights reserved                #
                  #                        -***-                        #
                  #######################################################


                         Program Version 5.0.3 -  RELEASE  -


 With contributions from (in alphabetic order):
   Daniel Aravena         : Magnetic Suceptibility
   Michael Atanasov       : Ab Initio Ligand Field Theory (pilot matlab implementation)
   Alexander A. Auer      : GIAO ZORA, VPT2 properties, NMR spectrum
   Ute Becker             : Parallelization
   Giovanni Bistoni       : ED, misc. LED, open-shell LED, HFLD
   Martin Brehm           : Molecular dynamics
   Dmytro Bykov           : SCF Hessian
   Vijay G. Chilkuri      : MRCI spin determinant printing, contributions to CSF-ICE
   Dipayan Datta          : RHF DLPNO-CCSD density
   Achintya Kumar Dutta   : EOM-CC, STEOM-CC
   Dmitry Ganyushin       : Spin-Orbit,Spin-Spin,Magnetic field MRCI
   Miquel Garcia          : C-PCM and meta-GGA Hessian, CC/C-PCM, Gaussian charge scheme
   Yang Guo               : DLPNO-NEVPT2, F12-NEVPT2, CIM, IAO-localization
   Andreas Hansen         : Spin unrestricted coupled pair/coupled cluster methods
   Benjamin Helmich-Paris : MC-RPA, TRAH-SCF, COSX integrals
   Lee Huntington         : MR-EOM, pCC
   Robert Izsak           : Overlap fitted RIJCOSX, COSX-SCS-MP3, EOM
   Marcus Kettner         : VPT2
   Christian Kollmar      : KDIIS, OOCD, Brueckner-CCSD(T), CCSD density, CASPT2, CASPT2-K
   Simone Kossmann        : Meta GGA functionals, TD-DFT gradient, OOMP2, MP2 Hessian
   Martin Krupicka        : Initial AUTO-CI
   Lucas Lang             : DCDCAS
   Marvin Lechner         : AUTO-CI (C++ implementation), FIC-MRCC
   Dagmar Lenk            : GEPOL surface, SMD
   Dimitrios Liakos       : Extrapolation schemes; Compound Job, initial MDCI parallelization
   Dimitrios Manganas     : Further ROCIS development; embedding schemes
   Dimitrios Pantazis     : SARC Basis sets
   Anastasios Papadopoulos: AUTO-CI, single reference methods and gradients
   Taras Petrenko         : DFT Hessian,TD-DFT gradient, ASA, ECA, R-Raman, ABS, FL, XAS/XES, NRVS
   Peter Pinski           : DLPNO-MP2, DLPNO-MP2 Gradient
   Christoph Reimann      : Effective Core Potentials
   Marius Retegan         : Local ZFS, SOC
   Christoph Riplinger    : Optimizer, TS searches, QM/MM, DLPNO-CCSD(T), (RO)-DLPNO pert. Triples
   Tobias Risthaus        : Range-separated hybrids, TD-DFT gradient, RPA, STAB
   Michael Roemelt        : Original ROCIS implementation
   Masaaki Saitow         : Open-shell DLPNO-CCSD energy and density
   Barbara Sandhoefer     : DKH picture change effects
   Avijit Sen             : IP-ROCIS
   Kantharuban Sivalingam : CASSCF convergence, NEVPT2, FIC-MRCI
   Bernardo de Souza      : ESD, SOC TD-DFT
   Georgi Stoychev        : AutoAux, RI-MP2 NMR, DLPNO-MP2 response
   Willem Van den Heuvel  : Paramagnetic NMR
   Boris Wezisla          : Elementary symmetry handling
   Frank Wennmohs         : Technical directorship


 We gratefully acknowledge several colleagues who have allowed us to
 interface, adapt or use parts of their codes:
   Stefan Grimme, W. Hujo, H. Kruse, P. Pracht,  : VdW corrections, initial TS optimization,
                  C. Bannwarth, S. Ehlert          DFT functionals, gCP, sTDA/sTD-DF
   Ed Valeev, F. Pavosevic, A. Kumar             : LibInt (2-el integral package), F12 methods
   Garnet Chan, S. Sharma, J. Yang, R. Olivares  : DMRG
   Ulf Ekstrom                                   : XCFun DFT Library
   Mihaly Kallay                                 : mrcc  (arbitrary order and MRCC methods)
   Jiri Pittner, Ondrej Demel                    : Mk-CCSD
   Frank Weinhold                                : gennbo (NPA and NBO analysis)
   Christopher J. Cramer and Donald G. Truhlar   : smd solvation model
   Lars Goerigk                                  : TD-DFT with DH, B97 family of functionals
   V. Asgeirsson, H. Jonsson                     : NEB implementation
   FAccTs GmbH                                   : IRC, NEB, NEB-TS, DLPNO-Multilevel, CI-OPT
                                                   MM, QMMM, 2- and 3-layer-ONIOM, Crystal-QMMM,
                                                   LR-CPCM, SF, NACMEs, symmetry and pop. for TD-DFT,
                                                   nearIR, NL-DFT gradient (VV10), updates on ESD,
                                                   ML-optimized integration grids
   S Lehtola, MJT Oliveira, MAL Marques          : LibXC Library
   Liviu Ungur et al                             : ANISO software


 Your calculation uses the libint2 library for the computation of 2-el integrals
 For citations please refer to: http://libint.valeyev.net

 Your ORCA version has been built with support for libXC version: 5.1.0
 For citations please refer to: https://tddft.org/programs/libxc/

 This ORCA versions uses:
   CBLAS   interface :  Fast vector & matrix operations
   LAPACKE interface :  Fast linear algebra routines
   SCALAPACK package :  Parallel linear algebra routines
   Shared memory     :  Shared parallel matrices
   BLAS/LAPACK       :  OpenBLAS 0.3.15  USE64BITINT DYNAMIC_ARCH NO_AFFINITY Haswell SINGLE_THREADED
        Core in use  :  Haswell
   Copyright (c) 2011-2014, The OpenBLAS Project


================================================================================

----- Orbital basis set information -----
Your calculation utilizes the basis: 6-31G
   H-He, Li-Ne : W. J. Hehre, R. Ditchfield and J.A. Pople, J. Chem. Phys. 56, 2257 (1972).
                 Note: He and Ne are unpublished basis sets taken from the Gaussian program.
                 Note: Li and B from J. D. Dill and J. A. Pople, J. Chem. Phys. 62, 2921 (1975).
   Na - Ar     : M. M. Francl, W. J. Pietro, W. J. Hehre, J. S. Binkley, M. S. Gordon, 
                 D. J. DeFrees and J. A. Pople, J. Chem. Phys. 77, 3654 (1982).
   K - Zn      : V. A. Rassolov, J. A. Pople, M. A. Ratner, and T. L. Windus, J. Chem. Phys. 109, 1223 (1998).

----- AuxJ basis set information -----
Your calculation utilizes the auxiliary basis: def2/J
   F. Weigend, Phys. Chem. Chem. Phys. 8, 1057 (2006).

================================================================================
                                        WARNINGS
                       Please study these warnings very carefully!
================================================================================

INFO   : Checking CIS options ...

INFO   : the flag for use of the SHARK integral package has been found!

================================================================================
                                       INPUT FILE
================================================================================
NAME = acrolien.1136.com
|  1> ! B3LYP 6-31G
|  2> !TightSCF
|  3> %scf
|  4>  ConvForced true
|  5>  convergence tight
|  6>  MaxIter 500
|  7> end
|  8>  
|  9> %tddft 
| 10>  nroots 1
| 11> end
| 12> 
| 13> # 	17590
| 14> * xyz 0 1
| 15> 		C   -1.266931  -0.291168  -0.035913
| 16> 		O   -1.677865  -1.022301  -0.792791
| 17> 		C   -0.065095   0.547517  -0.138999
| 18> 		C    1.166029  -0.035121   0.168858
| 19> 		H   -1.608513  -0.380711   0.922825
| 20> 		H   -0.089184   1.572373  -0.644485
| 21> 		H    1.328711  -0.983535   0.588888
| 22> 		H    2.144009   0.573769  -0.011303
| 23> *
| 24> 
| 25>                          ****END OF INPUT****
================================================================================

                       ****************************
                       * Single Point Calculation *
                       ****************************

---------------------------------
CARTESIAN COORDINATES (ANGSTROEM)
---------------------------------
  C     -1.266931   -0.291168   -0.035913
  O     -1.677865   -1.022301   -0.792791
  C     -0.065095    0.547517   -0.138999
  C      1.166029   -0.035121    0.168858
  H     -1.608513   -0.380711    0.922825
  H     -0.089184    1.572373   -0.644485
  H      1.328711   -0.983535    0.588888
  H      2.144009    0.573769   -0.011303

----------------------------
CARTESIAN COORDINATES (A.U.)
----------------------------
  NO LB      ZA    FRAG     MASS         X           Y           Z
   0 C     6.0000    0    12.011   -2.394153   -0.550228   -0.067866
   1 O     8.0000    0    15.999   -3.170705   -1.931869   -1.498158
   2 C     6.0000    0    12.011   -0.123012    1.034657   -0.262670
   3 C     6.0000    0    12.011    2.203475   -0.066369    0.319095
   4 H     1.0000    0     1.008   -3.039649   -0.719440    1.743887
   5 H     1.0000    0     1.008   -0.168533    2.971354   -1.217900
   6 H     1.0000    0     1.008    2.510900   -1.858612    1.112837
   7 H     1.0000    0     1.008    4.051590    1.084266   -0.021360

--------------------------------
INTERNAL COORDINATES (ANGSTROEM)
--------------------------------
 C      0   0   0     0.000000000000     0.00000000     0.00000000
 O      1   0   0     1.129728517357     0.00000000     0.00000000
 C      1   2   0     1.469159291403   128.31597246     0.00000000
 C      3   1   2     1.396391519191   117.87647630   277.58288321
 H      1   2   3     1.021701895964   116.76600940   197.37204241
 H      3   1   2     1.142990024827   121.71198263    85.74077424
 H      4   3   1     1.049942736258   126.99183769   351.51827870
 H      4   3   1     1.166040264494   119.17708558   173.67542346

---------------------------
INTERNAL COORDINATES (A.U.)
---------------------------
 C      0   0   0     0.000000000000     0.00000000     0.00000000
 O      1   0   0     2.134877503485     0.00000000     0.00000000
 C      1   2   0     2.776308707858   128.31597246     0.00000000
 C      3   1   2     2.638797547002   117.87647630   277.58288321
 H      1   2   3     1.930736773881   116.76600940   197.37204241
 H      3   1   2     2.159938120726   121.71198263    85.74077424
 H      4   3   1     1.984104227827   126.99183769   351.51827870
 H      4   3   1     2.203496761019   119.17708558   173.67542346

---------------------
BASIS SET INFORMATION
---------------------
There are 3 groups of distinct atoms

 Group   1 Type C   : 10s4p contracted to 3s2p pattern {631/31}
 Group   2 Type O   : 10s4p contracted to 3s2p pattern {631/31}
 Group   3 Type H   : 4s contracted to 2s pattern {31}

Atom   0C    basis set group =>   1
Atom   1O    basis set group =>   2
Atom   2C    basis set group =>   1
Atom   3C    basis set group =>   1
Atom   4H    basis set group =>   3
Atom   5H    basis set group =>   3
Atom   6H    basis set group =>   3
Atom   7H    basis set group =>   3
---------------------------------
AUXILIARY/J BASIS SET INFORMATION
---------------------------------
There are 3 groups of distinct atoms

 Group   1 Type C   : 12s5p4d2f1g contracted to 6s4p3d1f1g pattern {711111/2111/211/2/1}
 Group   2 Type O   : 12s5p4d2f1g contracted to 6s4p3d1f1g pattern {711111/2111/211/2/1}
 Group   3 Type H   : 5s2p1d contracted to 3s1p1d pattern {311/2/1}

Atom   0C    basis set group =>   1
Atom   1O    basis set group =>   2
Atom   2C    basis set group =>   1
Atom   3C    basis set group =>   1
Atom   4H    basis set group =>   3
Atom   5H    basis set group =>   3
Atom   6H    basis set group =>   3
Atom   7H    basis set group =>   3
------------------------------------------------------------------------------
                           ORCA GTO INTEGRAL CALCULATION
                           -- RI-GTO INTEGRALS CHOSEN --
------------------------------------------------------------------------------
------------------------------------------------------------------------------
                   ___                                                        
                  /   \      - P O W E R E D   B Y -                         
                 /     \                                                     
                 |  |  |   _    _      __       _____    __    __             
                 |  |  |  | |  | |    /  \     |  _  \  |  |  /  |          
                  \  \/   | |  | |   /    \    | | | |  |  | /  /          
                 / \  \   | |__| |  /  /\  \   | |_| |  |  |/  /          
                |  |  |   |  __  | /  /__\  \  |    /   |      \           
                |  |  |   | |  | | |   __   |  |    \   |  |\   \          
                \     /   | |  | | |  |  |  |  | |\  \  |  | \   \       
                 \___/    |_|  |_| |__|  |__|  |_| \__\ |__|  \__/        
                                                                              
                      - O R C A' S   B I G   F R I E N D -                    
                                      &                                       
                       - I N T E G R A L  F E E D E R -                       
                                                                              
 v1 FN, 2020, v2 2021                                                         
------------------------------------------------------------------------------


Reading SHARK input file acrolien.1136.SHARKINP.tmp ... ok
----------------------
SHARK INTEGRAL PACKAGE
----------------------

Number of atoms                             ...      8
Number of basis functions                   ...     44
Number of shells                            ...     28
Maximum angular momentum                    ...      1
Integral batch strategy                     ... SHARK/LIBINT Hybrid
RI-J (if used) integral strategy            ... SPLIT-RIJ (Revised 2003 algorithm where possible)
Printlevel                                  ...      1
Contraction scheme used                     ... SEGMENTED contraction
Coulomb Range Separation                    ... NOT USED
Exchange Range Separation                   ... NOT USED
Finite Nucleus Model                        ... NOT USED
Auxiliary Coulomb fitting basis             ... AVAILABLE
   # of basis functions in Aux-J            ...    240
   # of shells in Aux-J                     ...     80
   Maximum angular momentum in Aux-J        ...      4
Auxiliary J/K fitting basis                 ... NOT available
Auxiliary Correlation fitting basis         ... NOT available
Auxiliary 'external' fitting basis          ... NOT available
Integral threshold                          ...     2.500000e-11
Primitive cut-off                           ...     2.500000e-12
Primitive pair pre-selection threshold      ...     2.500000e-12

Calculating pre-screening integrals         ... done (  0.0 sec) Dimension = 28
Organizing shell pair data                  ... done (  0.0 sec)
Shell pair information
Total number of shell pairs                 ...       406
Shell pairs after pre-screening             ...       401
Total number of primitive shell pairs       ...      2724
Primitive shell pairs kept                  ...      2002
          la=0 lb=0:    205 shell pairs
          la=1 lb=0:    160 shell pairs
          la=1 lb=1:     36 shell pairs

Calculating one electron integrals          ... done (  0.0 sec)
Calculating RI/J V-Matrix + Cholesky decomp.... done (  0.1 sec)
Calculating Nuclear repulsion               ... done (  0.0 sec) ENN=    104.878582609005 Eh

SHARK setup successfully completed in   1.3 seconds

Maximum memory used throughout the entire GTOINT-calculation: 8.3 MB
-------------------------------------------------------------------------------
                                 ORCA SCF
-------------------------------------------------------------------------------

------------
SCF SETTINGS
------------
Hamiltonian:
 Density Functional     Method          .... DFT(GTOs)
 Exchange Functional    Exchange        .... B88
   X-Alpha parameter    XAlpha          ....  0.666667
   Becke's b parameter  XBeta           ....  0.004200
 Correlation Functional Correlation     .... LYP
 LDA part of GGA corr.  LDAOpt          .... VWN-5
 Gradients option       PostSCFGGA      .... off
 Hybrid DFT is turned on
   Fraction HF Exchange ScalHFX         ....  0.200000
   Scaling of DF-GGA-X  ScalDFX         ....  0.720000
   Scaling of DF-GGA-C  ScalDFC         ....  0.810000
   Scaling of DF-LDA-C  ScalLDAC        ....  1.000000
   Perturbative correction              ....  0.000000
   Density functional embedding theory  .... OFF
   NL short-range parameter             ....  4.800000
 RI-approximation to the Coulomb term is turned on
   Number of AuxJ basis functions       .... 240
   RIJ-COSX (HFX calculated with COS-X)).... on


General Settings:
 Integral files         IntName         .... acrolien.1136
 Hartree-Fock type      HFTyp           .... RHF
 Total Charge           Charge          ....    0
 Multiplicity           Mult            ....    1
 Number of Electrons    NEL             ....   30
 Basis Dimension        Dim             ....   44
 Nuclear Repulsion      ENuc            ....    104.8785826090 Eh

Convergence Acceleration:
 DIIS                   CNVDIIS         .... on
   Start iteration      DIISMaxIt       ....    12
   Startup error        DIISStart       ....  0.200000
   # of expansion vecs  DIISMaxEq       ....     5
   Bias factor          DIISBfac        ....   1.050
   Max. coefficient     DIISMaxC        ....  10.000
 Trust-Rad. Augm. Hess. CNVTRAH         .... auto
   Auto Start mean grad. ratio tolernc. ....  1.125000
   Auto Start start iteration           ....    20
   Auto Start num. interpolation iter.  ....    10
   Max. Number of Micro iterations      ....    16
   Max. Number of Macro iterations      .... Maxiter - #DIIS iter
   Number of Davidson start vectors     ....     2
   Converg. threshold I  (grad. norm)   ....   1.000e-05
   Converg. threshold II (energy diff.) ....   1.000e-08
   Grad. Scal. Fac. for Micro threshold ....   0.100
   Minimum threshold for Micro iter.    ....   0.010
   NR start threshold (gradient norm)   ....   0.001
   Initial trust radius                 ....   0.400
   Minimum AH scaling param. (alpha)    ....   1.000
   Maximum AH scaling param. (alpha)    .... 1000.000
   Orbital update algorithm             .... Taylor
   White noise on init. David. guess    .... on
   Maximum white noise                  ....   0.010
   Quad. conv. algorithm                .... NR
 SOSCF                  CNVSOSCF        .... on
   Start iteration      SOSCFMaxIt      ....   150
   Startup grad/error   SOSCFStart      ....  0.003300
 Level Shifting         CNVShift        .... on
   Level shift para.    LevelShift      ....    0.2500
   Turn off err/grad.   ShiftErr        ....    0.0010
 Zerner damping         CNVZerner       .... off
 Static damping         CNVDamp         .... on
   Fraction old density DampFac         ....    0.7000
   Max. Damping (<1)    DampMax         ....    0.9800
   Min. Damping (>=0)   DampMin         ....    0.0000
   Turn off err/grad.   DampErr         ....    0.1000
 Fernandez-Rico         CNVRico         .... off

SCF Procedure:
 Maximum # iterations   MaxIter         ....   500
 SCF integral mode      SCFMode         .... Direct
   Integral package                     .... SHARK and LIBINT hybrid scheme
 Reset frequency        DirectResetFreq ....    20
 Integral Threshold     Thresh          ....  2.500e-11 Eh
 Primitive CutOff       TCut            ....  2.500e-12 Eh

Convergence Tolerance:
 Convergence Check Mode ConvCheckMode   .... Total+1el-Energy
 Convergence forced     ConvForced      .... 1
 Energy Change          TolE            ....  1.000e-08 Eh
 1-El. energy change                    ....  1.000e-05 Eh
 Orbital Gradient       TolG            ....  1.000e-05
 Orbital Rotation angle TolX            ....  1.000e-05
 DIIS Error             TolErr          ....  5.000e-07


Diagonalization of the overlap matrix:
Smallest eigenvalue                        ... 7.746e-03
Time for diagonalization                   ...    0.057 sec
Threshold for overlap eigenvalues          ... 1.000e-08
Number of eigenvalues below threshold      ... 0
Time for construction of square roots      ...    0.081 sec
Total time needed                          ...    0.139 sec

Time for model grid setup =    0.065 sec

------------------------------
INITIAL GUESS: MODEL POTENTIAL
------------------------------
Loading Hartree-Fock densities                     ... done
Calculating cut-offs                               ... done
Initializing the effective Hamiltonian             ... done
Setting up the integral package (SHARK)            ... done
Starting the Coulomb interaction                   ... done (   1.2 sec)
Reading the grid                                   ... done
Mapping shells                                     ... done
Starting the XC term evaluation                    ... done (   0.0 sec)
  promolecular density results
     # of electrons  =     29.997591461
     EX              =    -24.768721637
     EC              =     -0.997026235
     EX+EC           =    -25.765747872
Transforming the Hamiltonian                       ... done (   0.4 sec)
Diagonalizing the Hamiltonian                      ... done (   0.0 sec)
Back transforming the eigenvectors                 ... done (   0.0 sec)
Now organizing SCF variables                       ... done
                      ------------------
                      INITIAL GUESS DONE (   2.1 sec)
                      ------------------
-------------------
DFT GRID GENERATION
-------------------

General Integration Accuracy     IntAcc      ... 4.388
Radial Grid Type                 RadialGrid  ... OptM3 with GC (2021)
Angular Grid (max. ang.)         AngularGrid ... 4 (Lebedev-302)
Angular grid pruning method      GridPruning ... 4 (adaptive)
Weight generation scheme         WeightScheme... Becke
Basis function cutoff            BFCut       ... 1.0000e-11
Integration weight cutoff        WCut        ... 1.0000e-14
Angular grids for H and He will be reduced by one unit
Partially contracted basis set               ... off
Rotationally invariant grid construction     ... off

Total number of grid points                  ...    37410
Total number of batches                      ...      589
Average number of points per batch           ...       63
Average number of grid points per atom       ...     4676
Time for grid setup =    0.702 sec

--------------------
COSX GRID GENERATION
--------------------

GRIDX 1
-------
General Integration Accuracy     IntAcc      ... 3.816
Radial Grid Type                 RadialGrid  ... OptM3 with GC (2021)
Angular Grid (max. ang.)         AngularGrid ... 1 (Lebedev-50)
Angular grid pruning method      GridPruning ... 4 (adaptive)
Weight generation scheme         WeightScheme... Becke
Basis function cutoff            BFCut       ... 1.0000e-11
Integration weight cutoff        WCut        ... 1.0000e-14
Angular grids for H and He will be reduced by one unit
Partially contracted basis set               ... on
Rotationally invariant grid construction     ... off

Total number of grid points                  ...     4808
Total number of batches                      ...       79
Average number of points per batch           ...       60
Average number of grid points per atom       ...      601
UseSFitting                                  ... on

GRIDX 2
-------
General Integration Accuracy     IntAcc      ... 4.020
Radial Grid Type                 RadialGrid  ... OptM3 with GC (2021)
Angular Grid (max. ang.)         AngularGrid ... 2 (Lebedev-110)
Angular grid pruning method      GridPruning ... 4 (adaptive)
Weight generation scheme         WeightScheme... Becke
Basis function cutoff            BFCut       ... 1.0000e-11
Integration weight cutoff        WCut        ... 1.0000e-14
Angular grids for H and He will be reduced by one unit
Partially contracted basis set               ... on
Rotationally invariant grid construction     ... off

Total number of grid points                  ...    10568
Total number of batches                      ...      168
Average number of points per batch           ...       62
Average number of grid points per atom       ...     1321
UseSFitting                                  ... on

GRIDX 3
-------
General Integration Accuracy     IntAcc      ... 4.338
Radial Grid Type                 RadialGrid  ... OptM3 with GC (2021)
Angular Grid (max. ang.)         AngularGrid ... 3 (Lebedev-194)
Angular grid pruning method      GridPruning ... 4 (adaptive)
Weight generation scheme         WeightScheme... Becke
Basis function cutoff            BFCut       ... 1.0000e-11
Integration weight cutoff        WCut        ... 1.0000e-14
Angular grids for H and He will be reduced by one unit
Partially contracted basis set               ... on
Rotationally invariant grid construction     ... off

Total number of grid points                  ...    23314
Total number of batches                      ...      369
Average number of points per batch           ...       63
Average number of grid points per atom       ...     2914
UseSFitting                                  ... on

Time for X-Grid setup             =    3.419 sec

--------------
SCF ITERATIONS
--------------
ITER       Energy         Delta-E        Max-DP      RMS-DP      [F,P]     Damp
               ***  Starting incremental Fock matrix formation  ***
  0   -191.5689223038   0.000000000000 0.08504001  0.00694335  0.2387217 0.7000
  1   -191.6258385241  -0.056916220301 0.05010497  0.00441350  0.0929275 0.7000
                               ***Turning on DIIS***
  2   -191.6459986334  -0.020160109273 0.07085071  0.00619178  0.0298663 0.0000
  3   -191.6808738608  -0.034875227411 0.03608336  0.00318478  0.0444478 0.0000
  4   -191.6870307266  -0.006156865801 0.01001048  0.00099082  0.0119536 0.0000
                      *** Initiating the SOSCF procedure ***
                           *** Shutting down DIIS ***
                      *** Re-Reading the Fockian *** 
                      *** Removing any level shift *** 
ITER      Energy       Delta-E        Grad      Rot      Max-DP    RMS-DP
  5   -191.68774536  -0.0007146343  0.000641  0.000641  0.004008  0.000249
               *** Restarting incremental Fock matrix formation ***
  6   -191.68770730   0.0000380647  0.000208  0.000634  0.001733  0.000128
  7   -191.68770816  -0.0000008626  0.000175  0.000177  0.000581  0.000042
  8   -191.68770868  -0.0000005203  0.000061  0.000115  0.000362  0.000025
  9   -191.68770867   0.0000000126  0.000058  0.000052  0.000102  0.000009
 10   -191.68770874  -0.0000000720  0.000008  0.000014  0.000060  0.000004
 11   -191.68770874  -0.0000000005  0.000004  0.000009  0.000011  0.000001
 12   -191.68770874   0.0000000006  0.000004  0.000005  0.000014  0.000001
                  ***Gradient check signals convergence***
              ***Rediagonalizing the Fockian in SOSCF/NRSCF***

               *****************************************************
               *                     SUCCESS                       *
               *           SCF CONVERGED AFTER  13 CYCLES          *
               *****************************************************

Old exchange energy                            =     -5.030719817 Eh
New exchange energy                            =     -5.030700683 Eh
Exchange energy change after final integration =      0.000019134 Eh
Total energy after final integration           =   -191.687689605 Eh
Final COS-X integration done in                =     0.816 sec

----------------
TOTAL SCF ENERGY
----------------

Total Energy       :         -191.68768960 Eh           -5216.08721 eV

Components:
Nuclear Repulsion  :          104.87858261 Eh            2853.89132 eV
Electronic Energy  :         -296.56627221 Eh           -8069.97854 eV
One Electron Energy:         -466.48397326 Eh          -12693.67425 eV
Two Electron Energy:          169.91770105 Eh            4623.69571 eV
Max COSX asymmetry :            0.00000061 Eh               0.00002 eV

Virial components:
Potential Energy   :         -382.81556276 Eh          -10416.94105 eV
Kinetic Energy     :          191.12787316 Eh            5200.85383 eV
Virial Ratio       :            2.00292902


DFT components:
N(Alpha)           :       14.999997372630 electrons
N(Beta)            :       14.999997372630 electrons
N(Total)           :       29.999994745259 electrons
E(X)               :      -20.018427652880 Eh       
E(C)               :       -1.184617958317 Eh       
E(XC)              :      -21.203045611197 Eh       
DFET-embed. en.    :        0.000000000000 Eh       

---------------
SCF CONVERGENCE
---------------

  Last Energy change         ...   -3.1551e-10  Tolerance :   1.0000e-08
  Last MAX-Density change    ...    5.7732e-15  Tolerance :   1.0000e-07
  Last RMS-Density change    ...    1.7460e-16  Tolerance :   5.0000e-09
  Last Orbital Gradient      ...    1.0703e-06  Tolerance :   1.0000e-05
  Last Orbital Rotation      ...    9.6985e-07  Tolerance :   1.0000e-05

             **** THE GBW FILE WAS UPDATED (acrolien.1136.gbw) ****
             **** DENSITY acrolien.1136.scfp WAS UPDATED ****
             **** ENERGY FILE WAS UPDATED (acrolien.1136.en.tmp) ****
             **** THE GBW FILE WAS UPDATED (acrolien.1136.gbw) ****
             **** DENSITY acrolien.1136.scfp WAS UPDATED ****
----------------
ORBITAL ENERGIES
----------------

  NO   OCC          E(Eh)            E(eV) 
   0   2.0000     -19.152386      -521.1629 
   1   2.0000     -10.269964      -279.4599 
   2   2.0000     -10.211116      -277.8586 
   3   2.0000     -10.210336      -277.8374 
   4   2.0000      -1.127210       -30.6730 
   5   2.0000      -0.786830       -21.4107 
   6   2.0000      -0.651256       -17.7216 
   7   2.0000      -0.575551       -15.6615 
   8   2.0000      -0.504293       -13.7225 
   9   2.0000      -0.464872       -12.6498 
  10   2.0000      -0.446937       -12.1618 
  11   2.0000      -0.400049       -10.8859 
  12   2.0000      -0.390284       -10.6202 
  13   2.0000      -0.274411        -7.4671 
  14   2.0000      -0.250855        -6.8261 
  15   0.0000      -0.023796        -0.6475 
  16   0.0000      -0.011455        -0.3117 
  17   0.0000       0.107474         2.9245 
  18   0.0000       0.130430         3.5492 
  19   0.0000       0.158402         4.3103 
  20   0.0000       0.188161         5.1201 
  21   0.0000       0.276106         7.5132 
  22   0.0000       0.315893         8.5959 
  23   0.0000       0.343392         9.3442 
  24   0.0000       0.523120        14.2348 
  25   0.0000       0.554356        15.0848 
  26   0.0000       0.561351        15.2751 
  27   0.0000       0.592523        16.1234 
  28   0.0000       0.632785        17.2190 
  29   0.0000       0.666812        18.1449 
  30   0.0000       0.683549        18.6003 
  31   0.0000       0.793490        21.5920 
  32   0.0000       0.805135        21.9088 
  33   0.0000       0.817351        22.2413 
  34   0.0000       0.871841        23.7240 
  35   0.0000       0.948983        25.8231 
  36   0.0000       0.958245        26.0752 
  37   0.0000       0.974377        26.5142 
  38   0.0000       0.999560        27.1994 
  39   0.0000       1.045566        28.4513 
  40   0.0000       1.079308        29.3695 
  41   0.0000       1.153226        31.3809 
  42   0.0000       1.237025        33.6612 
  43   0.0000       1.788147        48.6579 

                    ********************************
                    * MULLIKEN POPULATION ANALYSIS *
                    ********************************

-----------------------
MULLIKEN ATOMIC CHARGES
-----------------------
   0 C :    0.130715
   1 O :   -0.273071
   2 C :   -0.136852
   3 C :   -0.267984
   4 H :    0.096951
   5 H :    0.162334
   6 H :    0.149585
   7 H :    0.138322
Sum of atomic charges:    0.0000000

--------------------------------
MULLIKEN REDUCED ORBITAL CHARGES
--------------------------------
  0 C s       :     3.151801  s :     3.151801
      pz      :     0.963581  p :     2.717484
      px      :     0.921556
      py      :     0.832347
  1 O s       :     3.893684  s :     3.893684
      pz      :     1.561721  p :     4.379387
      px      :     1.482551
      py      :     1.335115
  2 C s       :     3.232515  s :     3.232515
      pz      :     0.989601  p :     2.904337
      px      :     0.918419
      py      :     0.996317
  3 C s       :     3.286293  s :     3.286293
      pz      :     0.999914  p :     2.981691
      px      :     0.977769
      py      :     1.004008
  4 H s       :     0.903049  s :     0.903049
  5 H s       :     0.837666  s :     0.837666
  6 H s       :     0.850415  s :     0.850415
  7 H s       :     0.861678  s :     0.861678


                     *******************************
                     * LOEWDIN POPULATION ANALYSIS *
                     *******************************

----------------------
LOEWDIN ATOMIC CHARGES
----------------------
   0 C :    0.101394
   1 O :   -0.166084
   2 C :   -0.170555
   3 C :   -0.205680
   4 H :    0.063265
   5 H :    0.137227
   6 H :    0.120271
   7 H :    0.120161

-------------------------------
LOEWDIN REDUCED ORBITAL CHARGES
-------------------------------
  0 C s       :     2.938950  s :     2.938950
      pz      :     1.068481  p :     2.959656
      px      :     0.959137
      py      :     0.932037
  1 O s       :     3.577949  s :     3.577949
      pz      :     1.661859  p :     4.588135
      px      :     1.522664
      py      :     1.403613
  2 C s       :     2.997705  s :     2.997705
      pz      :     1.005728  p :     3.172850
      px      :     1.080816
      py      :     1.086306
  3 C s       :     3.021862  s :     3.021862
      pz      :     1.013231  p :     3.183818
      px      :     1.077837
      py      :     1.092750
  4 H s       :     0.936735  s :     0.936735
  5 H s       :     0.862773  s :     0.862773
  6 H s       :     0.879729  s :     0.879729
  7 H s       :     0.879839  s :     0.879839


                      *****************************
                      * MAYER POPULATION ANALYSIS *
                      *****************************

  NA   - Mulliken gross atomic population
  ZA   - Total nuclear charge
  QA   - Mulliken gross atomic charge
  VA   - Mayer's total valence
  BVA  - Mayer's bonded valence
  FA   - Mayer's free valence

  ATOM       NA         ZA         QA         VA         BVA        FA
  0 C      5.8693     6.0000     0.1307     3.8114     3.8114    -0.0000
  1 O      8.2731     8.0000    -0.2731     2.0683     2.0683    -0.0000
  2 C      6.1369     6.0000    -0.1369     3.7161     3.7161     0.0000
  3 C      6.2680     6.0000    -0.2680     3.8771     3.8771     0.0000
  4 H      0.9030     1.0000     0.0970     0.9175     0.9175     0.0000
  5 H      0.8377     1.0000     0.1623     0.9443     0.9443     0.0000
  6 H      0.8504     1.0000     0.1496     0.9366     0.9366     0.0000
  7 H      0.8617     1.0000     0.1383     0.9495     0.9495     0.0000

  Mayer bond orders larger than 0.100000
B(  0-C ,  1-O ) :   1.9917 B(  0-C ,  2-C ) :   0.8928 B(  0-C ,  4-H ) :   0.8921 
B(  2-C ,  3-C ) :   1.9395 B(  2-C ,  5-H ) :   0.9248 B(  3-C ,  6-H ) :   0.9420 
B(  3-C ,  7-H ) :   0.9471 

-------
TIMINGS
-------

Total SCF time: 0 days 0 hours 0 min 58 sec 

Total time                  ....      58.086 sec
Sum of individual times     ....      47.767 sec  ( 82.2%)

Fock matrix formation       ....      40.440 sec  ( 69.6%)
  Split-RI-J                ....       0.631 sec  (  1.6% of F)
  Chain of spheres X        ....       4.705 sec  ( 11.6% of F)
  XC integration            ....      11.901 sec  ( 29.4% of F)
    Basis function eval.    ....       1.010 sec  (  8.5% of XC)
    Density eval.           ....       0.354 sec  (  3.0% of XC)
    XC-Functional eval.     ....       0.595 sec  (  5.0% of XC)
    XC-Potential eval.      ....       0.236 sec  (  2.0% of XC)
Diagonalization             ....       0.015 sec  (  0.0%)
Density matrix formation    ....       0.000 sec  (  0.0%)
Population analysis         ....       0.279 sec  (  0.5%)
Initial guess               ....       2.068 sec  (  3.6%)
Orbital Transformation      ....       0.000 sec  (  0.0%)
Orbital Orthonormalization  ....       0.000 sec  (  0.0%)
DIIS solution               ....       0.001 sec  (  0.0%)
SOSCF solution              ....       0.776 sec  (  1.3%)
Grid generation             ....       4.186 sec  (  7.2%)

Maximum memory used throughout the entire SCF-calculation: 46.8 MB
------------------------------------------------------------------------------
                        ORCA TD-DFT/TDA CALCULATION
------------------------------------------------------------------------------

Input orbitals are from        ... acrolien.1136.gbw
CI-vector output               ... acrolien.1136.cis
Tamm-Dancoff approximation     ... operative
CIS-Integral strategy          ... AO-integrals
Integral handling              ... AO integral Direct
Max. core memory used          ... 512 MB
Reference state                ... RHF
Generation of triplets         ... off
Follow IRoot                   ... off
Number of operators            ... 1
Orbital ranges used for CIS calculation:
 Operator 0:  Orbitals   4... 14  to  15... 43
XAS localization array:
 Operator 0:  Orbitals  -1... -1

-------------------
XC-INTEGRATION GRID
-------------------

General Integration Accuracy     IntAcc      ... 3.467
Radial Grid Type                 RadialGrid  ... OptM3 with GC (2021)
Angular Grid (max. ang.)         AngularGrid ... 1 (Lebedev-50)
Angular grid pruning method      GridPruning ... 4 (adaptive)
Weight generation scheme         WeightScheme... Becke
Basis function cutoff            BFCut       ... 1.0000e-11
Integration weight cutoff        WCut        ... 1.0000e-14
Angular grids for H and He will be reduced by one unit
Partially contracted basis set               ... off
Rotationally invariant grid construction     ... off

Total number of grid points                  ...     5507
Total number of batches                      ...       91
Average number of points per batch           ...       60
Average number of grid points per atom       ...      688

---------------------
COSX-INTEGRATION GRID
---------------------

General Integration Accuracy     IntAcc      ... 3.067
Radial Grid Type                 RadialGrid  ... OptM3 with GC (2021)
Angular Grid (max. ang.)         AngularGrid ... 1 (Lebedev-50)
Angular grid pruning method      GridPruning ... 4 (adaptive)
Weight generation scheme         WeightScheme... Becke
Basis function cutoff            BFCut       ... 1.0000e-11
Integration weight cutoff        WCut        ... 1.0000e-14
Angular grids for H and He will be reduced by one unit
Partially contracted basis set               ... on
Rotationally invariant grid construction     ... off

Total number of grid points                  ...     2514
Total number of batches                      ...       45
Average number of points per batch           ...       55
Average number of grid points per atom       ...      314

---------------
TD-DFT XC SETUP
---------------

DFT calculation                         ... on
Name of the grid file                   ... acrolien.1136.grid_cis.tmp
Exchange functional (TD-DFT)            ... B88
   X-Alpha parameter    XAlpha (TD-DFT) ...  0.666667
   Becke's b parameter  XBeta (TD-DFT)  ...  0.004200
Correlation functional (TD-DFT)         ... LYP
 LDA part of GGA corr.  LDAOpt (TD-DFT) ... VWN-5
Hybrid DFT                              ... on
   Exchange mixing (TD-DFT)             ...  0.200
   GGA exch. scaling (TD-DFT)           ...  0.720
   GGA corr. scaling (TD-DFT)           ...  0.810

Building densities             ... done
Calculating rho(r) on the grid ... done
Building xc-kernel on the grid ... done
                    *** TD-DFT CALCULATION INITIALIZED ***

------------------------
DAVIDSON-DIAGONALIZATION
------------------------

Dimension of the eigenvalue problem            ...    319
Number of roots to be determined               ...      1
Maximum size of the expansion space            ...     10
Maximum number of iterations                   ...    100
Convergence tolerance for the residual         ...    2.500e-07
Convergence tolerance for the energies         ...    2.500e-07
Orthogonality tolerance                        ...    1.000e-14
Level Shift                                    ...    0.000e+00
Constructing the preconditioner                ... o.k.
Building the initial guess                     ... o.k.
Number of trial vectors determined             ...     10


                       ****Iteration    0****

   Memory handling for direct AO based CIS:
   Memory per vector needed      ...     1 MB
   Memory needed                 ...     0 MB
   Memory available              ...   512 MB
   Number of vectors per batch   ...   512
   Number of batches             ...     1
   Time for densities:            0.000
   Time for RI-J (Direct):        0.043
   Time for K (COSX):             0.123
   Time for XC-Integration:       0.039
   Time for Sigma-Completion:     0.000
   Size of expansion space: 3
   Lowest Energy          :     0.163489791255
   Maximum Energy change  :     0.163489791255 (vector 0)
   Maximum residual norm  :     0.001175405718

                       ****Iteration    1****
   Time for densities:            0.000
   Time for RI-J (Direct):        0.034
   Time for K (COSX):             0.108
   Time for XC-Integration:       0.022
   Time for Sigma-Completion:     0.000
   Size of expansion space: 4
   Lowest Energy          :     0.161240865151
   Maximum Energy change  :     0.002248926104 (vector 0)
   Maximum residual norm  :     0.000129513077

                       ****Iteration    2****
   Time for densities:            0.000
   Time for RI-J (Direct):        0.033
   Time for K (COSX):             0.108
   Time for XC-Integration:       0.022
   Time for Sigma-Completion:     0.000
   Size of expansion space: 5
   Lowest Energy          :     0.161081409530
   Maximum Energy change  :     0.000159455621 (vector 0)
   Maximum residual norm  :     0.000005619950

                       ****Iteration    3****
   Time for densities:            0.000
   Time for RI-J (Direct):        0.033
   Time for K (COSX):             0.106
   Time for XC-Integration:       0.022
   Time for Sigma-Completion:     0.000
   Size of expansion space: 6
   Lowest Energy          :     0.161075403864
   Maximum Energy change  :     0.000006005666 (vector 0)
   Maximum residual norm  :     0.000000515075

                       ****Iteration    4****
   Time for densities:            0.000
   Time for RI-J (Direct):        0.033
   Time for K (COSX):             0.108
   Time for XC-Integration:       0.022
   Time for Sigma-Completion:     0.000
   Size of expansion space: 7
   Lowest Energy          :     0.161074688274
   Maximum Energy change  :     0.000000715590 (vector 0)
   Maximum residual norm  :     0.000000052598

      *** CONVERGENCE OF RESIDUAL NORM REACHED ***

Storing the converged CI vectors               ... acrolien.1136.cis1

                 *** DAVIDSON DONE ***

Total time for solving the CIS problem:     0.971sec

------------------------------------
TD-DFT/TDA EXCITED STATES (SINGLETS)
------------------------------------

the weight of the individual excitations are printed if larger than 1.0e-02

STATE  1:  E=   0.161075 au      4.383 eV    35351.8 cm**-1 <S**2> =   0.000000
    14a ->  15a  :     0.720649 (c=  0.84891034)
    14a ->  16a  :     0.263517 (c=  0.51333877)


-----------------------------
TD-DFT/TDA-EXCITATION SPECTRA
-----------------------------

Center of mass = ( -0.9117, -0.4352, -0.4009)
Calculating the Dipole integrals                  ... done
Transforming integrals                            ... done
Calculating the Linear Momentum integrals         ... done
Transforming integrals                            ... done
Calculating angular momentum integrals            ... done
Transforming integrals                            ... done

-----------------------------------------------------------------------------
         ABSORPTION SPECTRUM VIA TRANSITION ELECTRIC DIPOLE MOMENTS
-----------------------------------------------------------------------------
State   Energy    Wavelength  fosc         T2        TX        TY        TZ  
        (cm-1)      (nm)                 (au**2)    (au)      (au)      (au) 
-----------------------------------------------------------------------------
   1   35351.8    282.9   0.000423297   0.00394  -0.05249  -0.00033   0.03445

-----------------------------------------------------------------------------
         ABSORPTION SPECTRUM VIA TRANSITION VELOCITY DIPOLE MOMENTS
-----------------------------------------------------------------------------
State   Energy    Wavelength   fosc        P2         PX        PY        PZ  
        (cm-1)      (nm)                 (au**2)     (au)      (au)      (au) 
-----------------------------------------------------------------------------
   1   35351.8    282.9   0.000515831   0.00012   0.00907  -0.00508   0.00407

-------------------------------------------------------------------
                             CD SPECTRUM
-------------------------------------------------------------------
State  Energy     Wavelength     R         MX        MY        MZ   
       (cm-1)       (nm)     (1e40*cgs)   (au)      (au)      (au)  
-------------------------------------------------------------------
   1   35351.8    282.9      0.62868   0.20441   0.37514   0.35370

-------------------------------------------------------------------
         CD SPECTRUM VIA TRANSITION VELOCITY DIPOLE MOMENTS        
-------------------------------------------------------------------
State  Energy     Wavelength     R         MX        MY        MZ   
       (cm-1)       (nm)     (1e40*cgs)   (au)      (au)      (au)  
-------------------------------------------------------------------
   1   35351.8    282.9      4.06815   0.20441   0.37514   0.35370

Total run time:        1.596 sec

           *** ORCA-CIS/TD-DFT FINISHED WITHOUT ERROR ***

Maximum memory used throughout the entire CIS-calculation: 42.9 MB

-----------------------
CIS/TD-DFT TOTAL ENERGY
-----------------------

    E(SCF)  =   -191.687689605 Eh
    DE(CIS) =      0.161074688 Eh (Root  1)
    ----------------------------- ---------
    E(tot)  =   -191.526614916 Eh


-------------------------   --------------------
FINAL SINGLE POINT ENERGY      -191.526614916328
-------------------------   --------------------


                            ***************************************
                            *     ORCA property calculations      *
                            ***************************************

                                    ---------------------
                                    Active property flags
                                    ---------------------
   (+) Dipole Moment


------------------------------------------------------------------------------
                       ORCA ELECTRIC PROPERTIES CALCULATION
------------------------------------------------------------------------------

Dipole Moment Calculation                       ... on
Quadrupole Moment Calculation                   ... off
Polarizability Calculation                      ... off
GBWName                                         ... acrolien.1136.gbw
Electron density                                ... acrolien.1136.scfp
The origin for moment calculation is the CENTER OF MASS  = (-0.911720, -0.435168 -0.400900)

-------------
DIPOLE MOMENT
-------------
                                X             Y             Z
Electronic contribution:     -2.92671      -1.01449      -1.06898
Nuclear contribution   :      3.45814       1.58602       1.59055
                        -----------------------------------------
Total Dipole Moment    :      0.53143       0.57153       0.52156
                        -----------------------------------------
Magnitude (a.u.)       :      0.93866
Magnitude (Debye)      :      2.38590



--------------------
Rotational spectrum 
--------------------
 
Rotational constants in cm-1:     0.955798     0.175153     0.162672 
Rotational constants in MHz : 28654.099174  5250.945858  4876.796177 

 Dipole components along the rotational axes: 
x,y,z [a.u.] :     0.805173    -0.354161     0.327655 
x,y,z [Debye]:     2.046586    -0.900207     0.832833 

 

Timings for individual modules:

Sum of individual times         ...       62.014 sec (=   1.034 min)
GTO integral calculation        ...        1.647 sec (=   0.027 min)   2.7 %
SCF iterations                  ...       58.763 sec (=   0.979 min)  94.8 %
CIS module                      ...        1.605 sec (=   0.027 min)   2.6 %
                             ****ORCA TERMINATED NORMALLY****
TOTAL RUN TIME: 0 days 0 hours 1 minutes 2 seconds 548 msec
