
                                 *****************
                                 * O   R   C   A *
                                 *****************

                                            #,                                       
                                            ###                                      
                                            ####                                     
                                            #####                                    
                                            ######                                   
                                           ########,                                 
                                     ,,################,,,,,                         
                               ,,#################################,,                 
                          ,,##########################################,,             
                       ,#########################################, ''#####,          
                    ,#############################################,,   '####,        
                  ,##################################################,,,,####,       
                ,###########''''           ''''###############################       
              ,#####''   ,,,,##########,,,,          '''####'''          '####       
            ,##' ,,,,###########################,,,                        '##       
           ' ,,###''''                  '''############,,,                           
         ,,##''                                '''############,,,,        ,,,,,,###''
      ,#''                                            '''#######################'''  
     '                                                          ''''####''''         
             ,#######,   #######,   ,#######,      ##                                
            ,#'     '#,  ##    ##  ,#'     '#,    #''#        ######   ,####,        
            ##       ##  ##   ,#'  ##            #'  '#       #        #'  '#        
            ##       ##  #######   ##           ,######,      #####,   #    #        
            '#,     ,#'  ##    ##  '#,     ,#' ,#      #,         ##   #,  ,#        
             '#######'   ##     ##  '#######'  #'      '#     #####' # '####'        



                  #######################################################
                  #                        -***-                        #
                  #          Department of theory and spectroscopy      #
                  #    Directorship and core code : Frank Neese         #
                  #        Max Planck Institute fuer Kohlenforschung    #
                  #                Kaiser Wilhelm Platz 1               #
                  #                 D-45470 Muelheim/Ruhr               #
                  #                      Germany                        #
                  #                                                     #
                  #                  All rights reserved                #
                  #                        -***-                        #
                  #######################################################


                         Program Version 5.0.3 -  RELEASE  -


 With contributions from (in alphabetic order):
   Daniel Aravena         : Magnetic Suceptibility
   Michael Atanasov       : Ab Initio Ligand Field Theory (pilot matlab implementation)
   Alexander A. Auer      : GIAO ZORA, VPT2 properties, NMR spectrum
   Ute Becker             : Parallelization
   Giovanni Bistoni       : ED, misc. LED, open-shell LED, HFLD
   Martin Brehm           : Molecular dynamics
   Dmytro Bykov           : SCF Hessian
   Vijay G. Chilkuri      : MRCI spin determinant printing, contributions to CSF-ICE
   Dipayan Datta          : RHF DLPNO-CCSD density
   Achintya Kumar Dutta   : EOM-CC, STEOM-CC
   Dmitry Ganyushin       : Spin-Orbit,Spin-Spin,Magnetic field MRCI
   Miquel Garcia          : C-PCM and meta-GGA Hessian, CC/C-PCM, Gaussian charge scheme
   Yang Guo               : DLPNO-NEVPT2, F12-NEVPT2, CIM, IAO-localization
   Andreas Hansen         : Spin unrestricted coupled pair/coupled cluster methods
   Benjamin Helmich-Paris : MC-RPA, TRAH-SCF, COSX integrals
   Lee Huntington         : MR-EOM, pCC
   Robert Izsak           : Overlap fitted RIJCOSX, COSX-SCS-MP3, EOM
   Marcus Kettner         : VPT2
   Christian Kollmar      : KDIIS, OOCD, Brueckner-CCSD(T), CCSD density, CASPT2, CASPT2-K
   Simone Kossmann        : Meta GGA functionals, TD-DFT gradient, OOMP2, MP2 Hessian
   Martin Krupicka        : Initial AUTO-CI
   Lucas Lang             : DCDCAS
   Marvin Lechner         : AUTO-CI (C++ implementation), FIC-MRCC
   Dagmar Lenk            : GEPOL surface, SMD
   Dimitrios Liakos       : Extrapolation schemes; Compound Job, initial MDCI parallelization
   Dimitrios Manganas     : Further ROCIS development; embedding schemes
   Dimitrios Pantazis     : SARC Basis sets
   Anastasios Papadopoulos: AUTO-CI, single reference methods and gradients
   Taras Petrenko         : DFT Hessian,TD-DFT gradient, ASA, ECA, R-Raman, ABS, FL, XAS/XES, NRVS
   Peter Pinski           : DLPNO-MP2, DLPNO-MP2 Gradient
   Christoph Reimann      : Effective Core Potentials
   Marius Retegan         : Local ZFS, SOC
   Christoph Riplinger    : Optimizer, TS searches, QM/MM, DLPNO-CCSD(T), (RO)-DLPNO pert. Triples
   Tobias Risthaus        : Range-separated hybrids, TD-DFT gradient, RPA, STAB
   Michael Roemelt        : Original ROCIS implementation
   Masaaki Saitow         : Open-shell DLPNO-CCSD energy and density
   Barbara Sandhoefer     : DKH picture change effects
   Avijit Sen             : IP-ROCIS
   Kantharuban Sivalingam : CASSCF convergence, NEVPT2, FIC-MRCI
   Bernardo de Souza      : ESD, SOC TD-DFT
   Georgi Stoychev        : AutoAux, RI-MP2 NMR, DLPNO-MP2 response
   Willem Van den Heuvel  : Paramagnetic NMR
   Boris Wezisla          : Elementary symmetry handling
   Frank Wennmohs         : Technical directorship


 We gratefully acknowledge several colleagues who have allowed us to
 interface, adapt or use parts of their codes:
   Stefan Grimme, W. Hujo, H. Kruse, P. Pracht,  : VdW corrections, initial TS optimization,
                  C. Bannwarth, S. Ehlert          DFT functionals, gCP, sTDA/sTD-DF
   Ed Valeev, F. Pavosevic, A. Kumar             : LibInt (2-el integral package), F12 methods
   Garnet Chan, S. Sharma, J. Yang, R. Olivares  : DMRG
   Ulf Ekstrom                                   : XCFun DFT Library
   Mihaly Kallay                                 : mrcc  (arbitrary order and MRCC methods)
   Jiri Pittner, Ondrej Demel                    : Mk-CCSD
   Frank Weinhold                                : gennbo (NPA and NBO analysis)
   Christopher J. Cramer and Donald G. Truhlar   : smd solvation model
   Lars Goerigk                                  : TD-DFT with DH, B97 family of functionals
   V. Asgeirsson, H. Jonsson                     : NEB implementation
   FAccTs GmbH                                   : IRC, NEB, NEB-TS, DLPNO-Multilevel, CI-OPT
                                                   MM, QMMM, 2- and 3-layer-ONIOM, Crystal-QMMM,
                                                   LR-CPCM, SF, NACMEs, symmetry and pop. for TD-DFT,
                                                   nearIR, NL-DFT gradient (VV10), updates on ESD,
                                                   ML-optimized integration grids
   S Lehtola, MJT Oliveira, MAL Marques          : LibXC Library
   Liviu Ungur et al                             : ANISO software


 Your calculation uses the libint2 library for the computation of 2-el integrals
 For citations please refer to: http://libint.valeyev.net

 Your ORCA version has been built with support for libXC version: 5.1.0
 For citations please refer to: https://tddft.org/programs/libxc/

 This ORCA versions uses:
   CBLAS   interface :  Fast vector & matrix operations
   LAPACKE interface :  Fast linear algebra routines
   SCALAPACK package :  Parallel linear algebra routines
   Shared memory     :  Shared parallel matrices
   BLAS/LAPACK       :  OpenBLAS 0.3.15  USE64BITINT DYNAMIC_ARCH NO_AFFINITY Haswell SINGLE_THREADED
        Core in use  :  Haswell
   Copyright (c) 2011-2014, The OpenBLAS Project


================================================================================

----- Orbital basis set information -----
Your calculation utilizes the basis: 6-31G
   H-He, Li-Ne : W. J. Hehre, R. Ditchfield and J.A. Pople, J. Chem. Phys. 56, 2257 (1972).
                 Note: He and Ne are unpublished basis sets taken from the Gaussian program.
                 Note: Li and B from J. D. Dill and J. A. Pople, J. Chem. Phys. 62, 2921 (1975).
   Na - Ar     : M. M. Francl, W. J. Pietro, W. J. Hehre, J. S. Binkley, M. S. Gordon, 
                 D. J. DeFrees and J. A. Pople, J. Chem. Phys. 77, 3654 (1982).
   K - Zn      : V. A. Rassolov, J. A. Pople, M. A. Ratner, and T. L. Windus, J. Chem. Phys. 109, 1223 (1998).

----- AuxJ basis set information -----
Your calculation utilizes the auxiliary basis: def2/J
   F. Weigend, Phys. Chem. Chem. Phys. 8, 1057 (2006).

================================================================================
                                        WARNINGS
                       Please study these warnings very carefully!
================================================================================

INFO   : Checking CIS options ...

INFO   : the flag for use of the SHARK integral package has been found!

================================================================================
                                       INPUT FILE
================================================================================
NAME = acrolien.555.com
|  1> ! B3LYP 6-31G
|  2> !TightSCF
|  3> %scf
|  4>  ConvForced true
|  5>  convergence tight
|  6>  MaxIter 500
|  7> end
|  8>  
|  9> %tddft 
| 10>  nroots 1
| 11> end
| 12> 
| 13> # 	30802
| 14> * xyz 0 1
| 15> 		C   -0.659839  -0.432027   0.037712
| 16> 		O   -0.557613  -1.653146  -0.007127
| 17> 		C    0.687413   0.443068   0.014758
| 18> 		C    1.830869  -0.118715   0.007409
| 19> 		H   -1.668006   0.015088  -0.332390
| 20> 		H    0.539992   1.502550  -0.032435
| 21> 		H    2.023916  -1.229885  -0.092992
| 22> 		H    2.784843   0.489219  -0.145831
| 23> *
| 24> 
| 25>                          ****END OF INPUT****
================================================================================

                       ****************************
                       * Single Point Calculation *
                       ****************************

---------------------------------
CARTESIAN COORDINATES (ANGSTROEM)
---------------------------------
  C     -0.659839   -0.432027    0.037712
  O     -0.557613   -1.653146   -0.007127
  C      0.687413    0.443068    0.014758
  C      1.830869   -0.118715    0.007409
  H     -1.668006    0.015088   -0.332390
  H      0.539992    1.502550   -0.032435
  H      2.023916   -1.229885   -0.092992
  H      2.784843    0.489219   -0.145831

----------------------------
CARTESIAN COORDINATES (A.U.)
----------------------------
  NO LB      ZA    FRAG     MASS         X           Y           Z
   0 C     6.0000    0    12.011   -1.246915   -0.816413    0.071265
   1 O     8.0000    0    15.999   -1.053736   -3.123993   -0.013468
   2 C     6.0000    0    12.011    1.299022    0.837277    0.027889
   3 C     6.0000    0    12.011    3.459841   -0.224339    0.014001
   4 H     1.0000    0     1.008   -3.152075    0.028512   -0.628126
   5 H     1.0000    0     1.008    1.020437    2.839408   -0.061293
   6 H     1.0000    0     1.008    3.824647   -2.324146   -0.175729
   7 H     1.0000    0     1.008    5.262591    0.924490   -0.275581

--------------------------------
INTERNAL COORDINATES (ANGSTROEM)
--------------------------------
 C      0   0   0     0.000000000000     0.00000000     0.00000000
 O      1   0   0     1.226210546015     0.00000000     0.00000000
 C      1   2   0     1.606675479568   118.16234984     0.00000000
 C      3   1   2     1.274027382291   120.83106602   357.08019364
 H      1   2   3     1.163309079101   116.31892426   156.03026576
 H      3   1   2     1.070729769276   115.09487648   174.77771270
 H      4   3   1     1.132274822607   125.89235528     6.79950695
 H      4   3   1     1.141548351421   121.06315707   171.94136333

---------------------------
INTERNAL COORDINATES (A.U.)
---------------------------
 C      0   0   0     0.000000000000     0.00000000     0.00000000
 O      1   0   0     2.317202114494     0.00000000     0.00000000
 C      1   2   0     3.036176642470   118.16234984     0.00000000
 C      3   1   2     2.407562839646   120.83106602   357.08019364
 H      1   2   3     2.198335568604   116.31892426   156.03026576
 H      3   1   2     2.023386027368   115.09487648   174.77771270
 H      4   3   1     2.139689323062   125.89235528     6.79950695
 H      4   3   1     2.157213752815   121.06315707   171.94136333

---------------------
BASIS SET INFORMATION
---------------------
There are 3 groups of distinct atoms

 Group   1 Type C   : 10s4p contracted to 3s2p pattern {631/31}
 Group   2 Type O   : 10s4p contracted to 3s2p pattern {631/31}
 Group   3 Type H   : 4s contracted to 2s pattern {31}

Atom   0C    basis set group =>   1
Atom   1O    basis set group =>   2
Atom   2C    basis set group =>   1
Atom   3C    basis set group =>   1
Atom   4H    basis set group =>   3
Atom   5H    basis set group =>   3
Atom   6H    basis set group =>   3
Atom   7H    basis set group =>   3
---------------------------------
AUXILIARY/J BASIS SET INFORMATION
---------------------------------
There are 3 groups of distinct atoms

 Group   1 Type C   : 12s5p4d2f1g contracted to 6s4p3d1f1g pattern {711111/2111/211/2/1}
 Group   2 Type O   : 12s5p4d2f1g contracted to 6s4p3d1f1g pattern {711111/2111/211/2/1}
 Group   3 Type H   : 5s2p1d contracted to 3s1p1d pattern {311/2/1}

Atom   0C    basis set group =>   1
Atom   1O    basis set group =>   2
Atom   2C    basis set group =>   1
Atom   3C    basis set group =>   1
Atom   4H    basis set group =>   3
Atom   5H    basis set group =>   3
Atom   6H    basis set group =>   3
Atom   7H    basis set group =>   3
------------------------------------------------------------------------------
                           ORCA GTO INTEGRAL CALCULATION
                           -- RI-GTO INTEGRALS CHOSEN --
------------------------------------------------------------------------------
------------------------------------------------------------------------------
                   ___                                                        
                  /   \      - P O W E R E D   B Y -                         
                 /     \                                                     
                 |  |  |   _    _      __       _____    __    __             
                 |  |  |  | |  | |    /  \     |  _  \  |  |  /  |          
                  \  \/   | |  | |   /    \    | | | |  |  | /  /          
                 / \  \   | |__| |  /  /\  \   | |_| |  |  |/  /          
                |  |  |   |  __  | /  /__\  \  |    /   |      \           
                |  |  |   | |  | | |   __   |  |    \   |  |\   \          
                \     /   | |  | | |  |  |  |  | |\  \  |  | \   \       
                 \___/    |_|  |_| |__|  |__|  |_| \__\ |__|  \__/        
                                                                              
                      - O R C A' S   B I G   F R I E N D -                    
                                      &                                       
                       - I N T E G R A L  F E E D E R -                       
                                                                              
 v1 FN, 2020, v2 2021                                                         
------------------------------------------------------------------------------


Reading SHARK input file acrolien.555.SHARKINP.tmp ... ok
----------------------
SHARK INTEGRAL PACKAGE
----------------------

Number of atoms                             ...      8
Number of basis functions                   ...     44
Number of shells                            ...     28
Maximum angular momentum                    ...      1
Integral batch strategy                     ... SHARK/LIBINT Hybrid
RI-J (if used) integral strategy            ... SPLIT-RIJ (Revised 2003 algorithm where possible)
Printlevel                                  ...      1
Contraction scheme used                     ... SEGMENTED contraction
Coulomb Range Separation                    ... NOT USED
Exchange Range Separation                   ... NOT USED
Finite Nucleus Model                        ... NOT USED
Auxiliary Coulomb fitting basis             ... AVAILABLE
   # of basis functions in Aux-J            ...    240
   # of shells in Aux-J                     ...     80
   Maximum angular momentum in Aux-J        ...      4
Auxiliary J/K fitting basis                 ... NOT available
Auxiliary Correlation fitting basis         ... NOT available
Auxiliary 'external' fitting basis          ... NOT available
Integral threshold                          ...     2.500000e-11
Primitive cut-off                           ...     2.500000e-12
Primitive pair pre-selection threshold      ...     2.500000e-12

Calculating pre-screening integrals         ... done (  0.0 sec) Dimension = 28
Organizing shell pair data                  ... done (  0.1 sec)
Shell pair information
Total number of shell pairs                 ...       406
Shell pairs after pre-screening             ...       402
Total number of primitive shell pairs       ...      2724
Primitive shell pairs kept                  ...      1999
          la=0 lb=0:    206 shell pairs
          la=1 lb=0:    160 shell pairs
          la=1 lb=1:     36 shell pairs

Calculating one electron integrals          ... done (  0.0 sec)
Calculating RI/J V-Matrix + Cholesky decomp.... done (  0.1 sec)
Calculating Nuclear repulsion               ... done (  0.0 sec) ENN=    103.063531292545 Eh

SHARK setup successfully completed in   0.8 seconds

Maximum memory used throughout the entire GTOINT-calculation: 8.3 MB
-------------------------------------------------------------------------------
                                 ORCA SCF
-------------------------------------------------------------------------------

------------
SCF SETTINGS
------------
Hamiltonian:
 Density Functional     Method          .... DFT(GTOs)
 Exchange Functional    Exchange        .... B88
   X-Alpha parameter    XAlpha          ....  0.666667
   Becke's b parameter  XBeta           ....  0.004200
 Correlation Functional Correlation     .... LYP
 LDA part of GGA corr.  LDAOpt          .... VWN-5
 Gradients option       PostSCFGGA      .... off
 Hybrid DFT is turned on
   Fraction HF Exchange ScalHFX         ....  0.200000
   Scaling of DF-GGA-X  ScalDFX         ....  0.720000
   Scaling of DF-GGA-C  ScalDFC         ....  0.810000
   Scaling of DF-LDA-C  ScalLDAC        ....  1.000000
   Perturbative correction              ....  0.000000
   Density functional embedding theory  .... OFF
   NL short-range parameter             ....  4.800000
 RI-approximation to the Coulomb term is turned on
   Number of AuxJ basis functions       .... 240
   RIJ-COSX (HFX calculated with COS-X)).... on


General Settings:
 Integral files         IntName         .... acrolien.555
 Hartree-Fock type      HFTyp           .... RHF
 Total Charge           Charge          ....    0
 Multiplicity           Mult            ....    1
 Number of Electrons    NEL             ....   30
 Basis Dimension        Dim             ....   44
 Nuclear Repulsion      ENuc            ....    103.0635312925 Eh

Convergence Acceleration:
 DIIS                   CNVDIIS         .... on
   Start iteration      DIISMaxIt       ....    12
   Startup error        DIISStart       ....  0.200000
   # of expansion vecs  DIISMaxEq       ....     5
   Bias factor          DIISBfac        ....   1.050
   Max. coefficient     DIISMaxC        ....  10.000
 Trust-Rad. Augm. Hess. CNVTRAH         .... auto
   Auto Start mean grad. ratio tolernc. ....  1.125000
   Auto Start start iteration           ....    20
   Auto Start num. interpolation iter.  ....    10
   Max. Number of Micro iterations      ....    16
   Max. Number of Macro iterations      .... Maxiter - #DIIS iter
   Number of Davidson start vectors     ....     2
   Converg. threshold I  (grad. norm)   ....   1.000e-05
   Converg. threshold II (energy diff.) ....   1.000e-08
   Grad. Scal. Fac. for Micro threshold ....   0.100
   Minimum threshold for Micro iter.    ....   0.010
   NR start threshold (gradient norm)   ....   0.001
   Initial trust radius                 ....   0.400
   Minimum AH scaling param. (alpha)    ....   1.000
   Maximum AH scaling param. (alpha)    .... 1000.000
   Orbital update algorithm             .... Taylor
   White noise on init. David. guess    .... on
   Maximum white noise                  ....   0.010
   Quad. conv. algorithm                .... NR
 SOSCF                  CNVSOSCF        .... on
   Start iteration      SOSCFMaxIt      ....   150
   Startup grad/error   SOSCFStart      ....  0.003300
 Level Shifting         CNVShift        .... on
   Level shift para.    LevelShift      ....    0.2500
   Turn off err/grad.   ShiftErr        ....    0.0010
 Zerner damping         CNVZerner       .... off
 Static damping         CNVDamp         .... on
   Fraction old density DampFac         ....    0.7000
   Max. Damping (<1)    DampMax         ....    0.9800
   Min. Damping (>=0)   DampMin         ....    0.0000
   Turn off err/grad.   DampErr         ....    0.1000
 Fernandez-Rico         CNVRico         .... off

SCF Procedure:
 Maximum # iterations   MaxIter         ....   500
 SCF integral mode      SCFMode         .... Direct
   Integral package                     .... SHARK and LIBINT hybrid scheme
 Reset frequency        DirectResetFreq ....    20
 Integral Threshold     Thresh          ....  2.500e-11 Eh
 Primitive CutOff       TCut            ....  2.500e-12 Eh

Convergence Tolerance:
 Convergence Check Mode ConvCheckMode   .... Total+1el-Energy
 Convergence forced     ConvForced      .... 1
 Energy Change          TolE            ....  1.000e-08 Eh
 1-El. energy change                    ....  1.000e-05 Eh
 Orbital Gradient       TolG            ....  1.000e-05
 Orbital Rotation angle TolX            ....  1.000e-05
 DIIS Error             TolErr          ....  5.000e-07


Diagonalization of the overlap matrix:
Smallest eigenvalue                        ... 4.916e-03
Time for diagonalization                   ...    0.060 sec
Threshold for overlap eigenvalues          ... 1.000e-08
Number of eigenvalues below threshold      ... 0
Time for construction of square roots      ...    0.065 sec
Total time needed                          ...    0.126 sec

Time for model grid setup =    0.154 sec

------------------------------
INITIAL GUESS: MODEL POTENTIAL
------------------------------
Loading Hartree-Fock densities                     ... done
Calculating cut-offs                               ... done
Initializing the effective Hamiltonian             ... done
Setting up the integral package (SHARK)            ... done
Starting the Coulomb interaction                   ... done (   0.4 sec)
Reading the grid                                   ... done
Mapping shells                                     ... done
Starting the XC term evaluation                    ... done (   0.0 sec)
  promolecular density results
     # of electrons  =     29.999832111
     EX              =    -24.709272280
     EC              =     -0.992874963
     EX+EC           =    -25.702147242
Transforming the Hamiltonian                       ... done (   0.4 sec)
Diagonalizing the Hamiltonian                      ... done (   0.0 sec)
Back transforming the eigenvectors                 ... done (   0.0 sec)
Now organizing SCF variables                       ... done
                      ------------------
                      INITIAL GUESS DONE (   1.2 sec)
                      ------------------
-------------------
DFT GRID GENERATION
-------------------

General Integration Accuracy     IntAcc      ... 4.388
Radial Grid Type                 RadialGrid  ... OptM3 with GC (2021)
Angular Grid (max. ang.)         AngularGrid ... 4 (Lebedev-302)
Angular grid pruning method      GridPruning ... 4 (adaptive)
Weight generation scheme         WeightScheme... Becke
Basis function cutoff            BFCut       ... 1.0000e-11
Integration weight cutoff        WCut        ... 1.0000e-14
Angular grids for H and He will be reduced by one unit
Partially contracted basis set               ... off
Rotationally invariant grid construction     ... off

Total number of grid points                  ...    37401
Total number of batches                      ...      589
Average number of points per batch           ...       63
Average number of grid points per atom       ...     4675
Time for grid setup =    0.716 sec

--------------------
COSX GRID GENERATION
--------------------

GRIDX 1
-------
General Integration Accuracy     IntAcc      ... 3.816
Radial Grid Type                 RadialGrid  ... OptM3 with GC (2021)
Angular Grid (max. ang.)         AngularGrid ... 1 (Lebedev-50)
Angular grid pruning method      GridPruning ... 4 (adaptive)
Weight generation scheme         WeightScheme... Becke
Basis function cutoff            BFCut       ... 1.0000e-11
Integration weight cutoff        WCut        ... 1.0000e-14
Angular grids for H and He will be reduced by one unit
Partially contracted basis set               ... on
Rotationally invariant grid construction     ... off

Total number of grid points                  ...     4803
Total number of batches                      ...       79
Average number of points per batch           ...       60
Average number of grid points per atom       ...      600
UseSFitting                                  ... on

GRIDX 2
-------
General Integration Accuracy     IntAcc      ... 4.020
Radial Grid Type                 RadialGrid  ... OptM3 with GC (2021)
Angular Grid (max. ang.)         AngularGrid ... 2 (Lebedev-110)
Angular grid pruning method      GridPruning ... 4 (adaptive)
Weight generation scheme         WeightScheme... Becke
Basis function cutoff            BFCut       ... 1.0000e-11
Integration weight cutoff        WCut        ... 1.0000e-14
Angular grids for H and He will be reduced by one unit
Partially contracted basis set               ... on
Rotationally invariant grid construction     ... off

Total number of grid points                  ...    10561
Total number of batches                      ...      169
Average number of points per batch           ...       62
Average number of grid points per atom       ...     1320
UseSFitting                                  ... on

GRIDX 3
-------
General Integration Accuracy     IntAcc      ... 4.338
Radial Grid Type                 RadialGrid  ... OptM3 with GC (2021)
Angular Grid (max. ang.)         AngularGrid ... 3 (Lebedev-194)
Angular grid pruning method      GridPruning ... 4 (adaptive)
Weight generation scheme         WeightScheme... Becke
Basis function cutoff            BFCut       ... 1.0000e-11
Integration weight cutoff        WCut        ... 1.0000e-14
Angular grids for H and He will be reduced by one unit
Partially contracted basis set               ... on
Rotationally invariant grid construction     ... off

Total number of grid points                  ...    23294
Total number of batches                      ...      368
Average number of points per batch           ...       63
Average number of grid points per atom       ...     2912
UseSFitting                                  ... on

Time for X-Grid setup             =    3.118 sec

--------------
SCF ITERATIONS
--------------
ITER       Energy         Delta-E        Max-DP      RMS-DP      [F,P]     Damp
               ***  Starting incremental Fock matrix formation  ***
  0   -191.5682907158   0.000000000000 0.10869698  0.00780498  0.2861907 0.7000
  1   -191.6424321490  -0.074141433205 0.06174896  0.00457399  0.0976628 0.7000
                               ***Turning on DIIS***
  2   -191.6647742854  -0.022342136420 0.05493292  0.00596731  0.0316251 0.0000
  3   -191.7085463276  -0.043772042209 0.04014600  0.00333503  0.0477876 0.0000
  4   -191.7149448784  -0.006398550765 0.01265635  0.00118905  0.0294167 0.0000
  5   -191.7163036191  -0.001358740713 0.00401114  0.00033499  0.0048398 0.0000
                      *** Initiating the SOSCF procedure ***
                           *** Shutting down DIIS ***
                      *** Re-Reading the Fockian *** 
                      *** Removing any level shift *** 
ITER      Energy       Delta-E        Grad      Rot      Max-DP    RMS-DP
  6   -191.71634495  -0.0000413333  0.000283  0.000283  0.001016  0.000095
               *** Restarting incremental Fock matrix formation ***
  7   -191.71636516  -0.0000202097  0.000121  0.000349  0.000984  0.000068
  8   -191.71636550  -0.0000003389  0.000087  0.000372  0.000402  0.000025
  9   -191.71636549   0.0000000072  0.000095  0.000187  0.000231  0.000017
 10   -191.71636558  -0.0000000816  0.000035  0.000091  0.000086  0.000008
 11   -191.71636557   0.0000000045  0.000031  0.000075  0.000066  0.000006
 12   -191.71636559  -0.0000000150  0.000008  0.000019  0.000022  0.000002
 13   -191.71636559   0.0000000006  0.000008  0.000010  0.000012  0.000001
                  ***Gradient check signals convergence***
              ***Rediagonalizing the Fockian in SOSCF/NRSCF***

               *****************************************************
               *                     SUCCESS                       *
               *           SCF CONVERGED AFTER  14 CYCLES          *
               *****************************************************

Old exchange energy                            =     -5.005984930 Eh
New exchange energy                            =     -5.005978978 Eh
Exchange energy change after final integration =      0.000005952 Eh
Total energy after final integration           =   -191.716359634 Eh
Final COS-X integration done in                =     0.797 sec

----------------
TOTAL SCF ENERGY
----------------

Total Energy       :         -191.71635963 Eh           -5216.86737 eV

Components:
Nuclear Repulsion  :          103.06353129 Eh            2804.50126 eV
Electronic Energy  :         -294.77989093 Eh           -8021.36863 eV
One Electron Energy:         -463.22866312 Eh          -12605.09275 eV
Two Electron Energy:          168.44877220 Eh            4583.72412 eV
Max COSX asymmetry :            0.00000052 Eh               0.00001 eV

Virial components:
Potential Energy   :         -382.37783133 Eh          -10405.02977 eV
Kinetic Energy     :          190.66147170 Eh            5188.16241 eV
Virial Ratio       :            2.00553278


DFT components:
N(Alpha)           :       14.999997688666 electrons
N(Beta)            :       14.999997688666 electrons
N(Total)           :       29.999995377332 electrons
E(X)               :      -19.935481077700 Eh       
E(C)               :       -1.179775617175 Eh       
E(XC)              :      -21.115256694875 Eh       
DFET-embed. en.    :        0.000000000000 Eh       

---------------
SCF CONVERGENCE
---------------

  Last Energy change         ...   -7.5204e-10  Tolerance :   1.0000e-08
  Last MAX-Density change    ...    1.3323e-15  Tolerance :   1.0000e-07
  Last RMS-Density change    ...    8.3682e-17  Tolerance :   5.0000e-09
  Last Orbital Gradient      ...    5.4012e-07  Tolerance :   1.0000e-05
  Last Orbital Rotation      ...    8.9639e-07  Tolerance :   1.0000e-05

             **** THE GBW FILE WAS UPDATED (acrolien.555.gbw) ****
             **** DENSITY acrolien.555.scfp WAS UPDATED ****
             **** ENERGY FILE WAS UPDATED (acrolien.555.en.tmp) ****
             **** THE GBW FILE WAS UPDATED (acrolien.555.gbw) ****
             **** DENSITY acrolien.555.scfp WAS UPDATED ****
----------------
ORBITAL ENERGIES
----------------

  NO   OCC          E(Eh)            E(eV) 
   0   2.0000     -19.155770      -521.2550 
   1   2.0000     -10.292483      -280.0727 
   2   2.0000     -10.203127      -277.6412 
   3   2.0000     -10.201667      -277.6015 
   4   2.0000      -1.066088       -29.0097 
   5   2.0000      -0.797074       -21.6895 
   6   2.0000      -0.632138       -17.2014 
   7   2.0000      -0.544587       -14.8190 
   8   2.0000      -0.502833       -13.6828 
   9   2.0000      -0.450626       -12.2622 
  10   2.0000      -0.428726       -11.6662 
  11   2.0000      -0.396664       -10.7938 
  12   2.0000      -0.366195        -9.9647 
  13   2.0000      -0.294427        -8.0118 
  14   2.0000      -0.255218        -6.9448 
  15   0.0000      -0.063694        -1.7332 
  16   0.0000       0.046705         1.2709 
  17   0.0000       0.093071         2.5326 
  18   0.0000       0.122221         3.3258 
  19   0.0000       0.143153         3.8954 
  20   0.0000       0.175343         4.7713 
  21   0.0000       0.254367         6.9217 
  22   0.0000       0.284038         7.7291 
  23   0.0000       0.347469         9.4551 
  24   0.0000       0.507455        13.8086 
  25   0.0000       0.512064        13.9340 
  26   0.0000       0.575584        15.6624 
  27   0.0000       0.629587        17.1319 
  28   0.0000       0.640995        17.4424 
  29   0.0000       0.656822        17.8730 
  30   0.0000       0.683024        18.5860 
  31   0.0000       0.752258        20.4700 
  32   0.0000       0.791283        21.5319 
  33   0.0000       0.828100        22.5338 
  34   0.0000       0.887659        24.1544 
  35   0.0000       0.899483        24.4762 
  36   0.0000       0.939909        25.5762 
  37   0.0000       0.961205        26.1557 
  38   0.0000       1.002986        27.2926 
  39   0.0000       1.084544        29.5119 
  40   0.0000       1.138080        30.9687 
  41   0.0000       1.178670        32.0732 
  42   0.0000       1.284754        34.9599 
  43   0.0000       1.712982        46.6126 

                    ********************************
                    * MULLIKEN POPULATION ANALYSIS *
                    ********************************

-----------------------
MULLIKEN ATOMIC CHARGES
-----------------------
   0 C :    0.189970
   1 O :   -0.367649
   2 C :   -0.114890
   3 C :   -0.271205
   4 H :    0.118260
   5 H :    0.135558
   6 H :    0.171322
   7 H :    0.138635
Sum of atomic charges:    0.0000000

--------------------------------
MULLIKEN REDUCED ORBITAL CHARGES
--------------------------------
  0 C s       :     3.236203  s :     3.236203
      pz      :     0.791605  p :     2.573827
      px      :     1.006835
      py      :     0.775387
  1 O s       :     3.948033  s :     3.948033
      pz      :     1.290015  p :     4.419616
      px      :     1.797947
      py      :     1.331654
  2 C s       :     3.216004  s :     3.216004
      pz      :     1.014573  p :     2.898886
      px      :     0.905784
      py      :     0.978529
  3 C s       :     3.289463  s :     3.289463
      pz      :     0.927347  p :     2.981742
      px      :     1.001023
      py      :     1.053372
  4 H s       :     0.881740  s :     0.881740
  5 H s       :     0.864442  s :     0.864442
  6 H s       :     0.828678  s :     0.828678
  7 H s       :     0.861365  s :     0.861365


                     *******************************
                     * LOEWDIN POPULATION ANALYSIS *
                     *******************************

----------------------
LOEWDIN ATOMIC CHARGES
----------------------
   0 C :    0.120703
   1 O :   -0.234563
   2 C :   -0.174352
   3 C :   -0.175206
   4 H :    0.086436
   5 H :    0.119438
   6 H :    0.136128
   7 H :    0.121414

-------------------------------
LOEWDIN REDUCED ORBITAL CHARGES
-------------------------------
  0 C s       :     3.030494  s :     3.030494
      pz      :     0.793411  p :     2.848803
      px      :     1.059436
      py      :     0.995956
  1 O s       :     3.647530  s :     3.647530
      pz      :     1.289997  p :     4.587033
      px      :     1.836875
      py      :     1.460161
  2 C s       :     2.983285  s :     2.983285
      pz      :     1.009972  p :     3.191067
      px      :     1.089563
      py      :     1.091533
  3 C s       :     3.004485  s :     3.004485
      pz      :     0.932322  p :     3.170721
      px      :     1.111898
      py      :     1.126501
  4 H s       :     0.913564  s :     0.913564
  5 H s       :     0.880562  s :     0.880562
  6 H s       :     0.863872  s :     0.863872
  7 H s       :     0.878586  s :     0.878586


                      *****************************
                      * MAYER POPULATION ANALYSIS *
                      *****************************

  NA   - Mulliken gross atomic population
  ZA   - Total nuclear charge
  QA   - Mulliken gross atomic charge
  VA   - Mayer's total valence
  BVA  - Mayer's bonded valence
  FA   - Mayer's free valence

  ATOM       NA         ZA         QA         VA         BVA        FA
  0 C      5.8100     6.0000     0.1900     3.6825     3.6825     0.0000
  1 O      8.3676     8.0000    -0.3676     2.0048     2.0048     0.0000
  2 C      6.1149     6.0000    -0.1149     3.7867     3.7867     0.0000
  3 C      6.2712     6.0000    -0.2712     3.8484     3.8484     0.0000
  4 H      0.8817     1.0000     0.1183     0.9346     0.9346     0.0000
  5 H      0.8644     1.0000     0.1356     0.9394     0.9394     0.0000
  6 H      0.8287     1.0000     0.1713     0.9451     0.9451     0.0000
  7 H      0.8614     1.0000     0.1386     0.9454     0.9454     0.0000

  Mayer bond orders larger than 0.100000
B(  0-C ,  1-O ) :   1.8607 B(  0-C ,  2-C ) :   0.9222 B(  0-C ,  4-H ) :   0.8717 
B(  2-C ,  3-C ) :   1.9205 B(  2-C ,  5-H ) :   0.9301 B(  3-C ,  6-H ) :   0.9261 
B(  3-C ,  7-H ) :   0.9384 

-------
TIMINGS
-------

Total SCF time: 0 days 0 hours 1 min 0 sec 

Total time                  ....      60.581 sec
Sum of individual times     ....      51.650 sec  ( 85.3%)

Fock matrix formation       ....      46.445 sec  ( 76.7%)
  Split-RI-J                ....       0.647 sec  (  1.4% of F)
  Chain of spheres X        ....       4.904 sec  ( 10.6% of F)
  XC integration            ....      20.159 sec  ( 43.4% of F)
    Basis function eval.    ....       1.070 sec  (  5.3% of XC)
    Density eval.           ....       0.433 sec  (  2.1% of XC)
    XC-Functional eval.     ....       0.645 sec  (  3.2% of XC)
    XC-Potential eval.      ....       0.257 sec  (  1.3% of XC)
Diagonalization             ....       0.003 sec  (  0.0%)
Density matrix formation    ....       0.000 sec  (  0.0%)
Population analysis         ....       0.002 sec  (  0.0%)
Initial guess               ....       1.081 sec  (  1.8%)
Orbital Transformation      ....       0.000 sec  (  0.0%)
Orbital Orthonormalization  ....       0.000 sec  (  0.0%)
DIIS solution               ....       0.006 sec  (  0.0%)
SOSCF solution              ....       0.124 sec  (  0.2%)
Grid generation             ....       3.988 sec  (  6.6%)

Maximum memory used throughout the entire SCF-calculation: 46.8 MB
------------------------------------------------------------------------------
                        ORCA TD-DFT/TDA CALCULATION
------------------------------------------------------------------------------

Input orbitals are from        ... acrolien.555.gbw
CI-vector output               ... acrolien.555.cis
Tamm-Dancoff approximation     ... operative
CIS-Integral strategy          ... AO-integrals
Integral handling              ... AO integral Direct
Max. core memory used          ... 512 MB
Reference state                ... RHF
Generation of triplets         ... off
Follow IRoot                   ... off
Number of operators            ... 1
Orbital ranges used for CIS calculation:
 Operator 0:  Orbitals   4... 14  to  15... 43
XAS localization array:
 Operator 0:  Orbitals  -1... -1

-------------------
XC-INTEGRATION GRID
-------------------

General Integration Accuracy     IntAcc      ... 3.467
Radial Grid Type                 RadialGrid  ... OptM3 with GC (2021)
Angular Grid (max. ang.)         AngularGrid ... 1 (Lebedev-50)
Angular grid pruning method      GridPruning ... 4 (adaptive)
Weight generation scheme         WeightScheme... Becke
Basis function cutoff            BFCut       ... 1.0000e-11
Integration weight cutoff        WCut        ... 1.0000e-14
Angular grids for H and He will be reduced by one unit
Partially contracted basis set               ... off
Rotationally invariant grid construction     ... off

Total number of grid points                  ...     5499
Total number of batches                      ...       91
Average number of points per batch           ...       60
Average number of grid points per atom       ...      687

---------------------
COSX-INTEGRATION GRID
---------------------

General Integration Accuracy     IntAcc      ... 3.067
Radial Grid Type                 RadialGrid  ... OptM3 with GC (2021)
Angular Grid (max. ang.)         AngularGrid ... 1 (Lebedev-50)
Angular grid pruning method      GridPruning ... 4 (adaptive)
Weight generation scheme         WeightScheme... Becke
Basis function cutoff            BFCut       ... 1.0000e-11
Integration weight cutoff        WCut        ... 1.0000e-14
Angular grids for H and He will be reduced by one unit
Partially contracted basis set               ... on
Rotationally invariant grid construction     ... off

Total number of grid points                  ...     2508
Total number of batches                      ...       45
Average number of points per batch           ...       55
Average number of grid points per atom       ...      314

---------------
TD-DFT XC SETUP
---------------

DFT calculation                         ... on
Name of the grid file                   ... acrolien.555.grid_cis.tmp
Exchange functional (TD-DFT)            ... B88
   X-Alpha parameter    XAlpha (TD-DFT) ...  0.666667
   Becke's b parameter  XBeta (TD-DFT)  ...  0.004200
Correlation functional (TD-DFT)         ... LYP
 LDA part of GGA corr.  LDAOpt (TD-DFT) ... VWN-5
Hybrid DFT                              ... on
   Exchange mixing (TD-DFT)             ...  0.200
   GGA exch. scaling (TD-DFT)           ...  0.720
   GGA corr. scaling (TD-DFT)           ...  0.810

Building densities             ... done
Calculating rho(r) on the grid ... done
Building xc-kernel on the grid ... done
                    *** TD-DFT CALCULATION INITIALIZED ***

------------------------
DAVIDSON-DIAGONALIZATION
------------------------

Dimension of the eigenvalue problem            ...    319
Number of roots to be determined               ...      1
Maximum size of the expansion space            ...     10
Maximum number of iterations                   ...    100
Convergence tolerance for the residual         ...    2.500e-07
Convergence tolerance for the energies         ...    2.500e-07
Orthogonality tolerance                        ...    1.000e-14
Level Shift                                    ...    0.000e+00
Constructing the preconditioner                ... o.k.
Building the initial guess                     ... o.k.
Number of trial vectors determined             ...     10


                       ****Iteration    0****

   Memory handling for direct AO based CIS:
   Memory per vector needed      ...     1 MB
   Memory needed                 ...     0 MB
   Memory available              ...   512 MB
   Number of vectors per batch   ...   512
   Number of batches             ...     1
   Time for densities:            0.000
   Time for RI-J (Direct):        0.042
   Time for K (COSX):             0.115
   Time for XC-Integration:       0.038
   Time for Sigma-Completion:     0.000
   Size of expansion space: 3
   Lowest Energy          :     0.130050050639
   Maximum Energy change  :     0.130050050639 (vector 0)
   Maximum residual norm  :     0.001101631376

                       ****Iteration    1****
   Time for densities:            0.000
   Time for RI-J (Direct):        0.033
   Time for K (COSX):             0.107
   Time for XC-Integration:       0.022
   Time for Sigma-Completion:     0.000
   Size of expansion space: 4
   Lowest Energy          :     0.128306274481
   Maximum Energy change  :     0.001743776158 (vector 0)
   Maximum residual norm  :     0.000178664425

                       ****Iteration    2****
   Time for densities:            0.000
   Time for RI-J (Direct):        0.033
   Time for K (COSX):             0.107
   Time for XC-Integration:       0.022
   Time for Sigma-Completion:     0.000
   Size of expansion space: 5
   Lowest Energy          :     0.128083044549
   Maximum Energy change  :     0.000223229932 (vector 0)
   Maximum residual norm  :     0.000023946293

                       ****Iteration    3****
   Time for densities:            0.000
   Time for RI-J (Direct):        0.033
   Time for K (COSX):             0.107
   Time for XC-Integration:       0.022
   Time for Sigma-Completion:     0.000
   Size of expansion space: 6
   Lowest Energy          :     0.128056717817
   Maximum Energy change  :     0.000026326731 (vector 0)
   Maximum residual norm  :     0.000002005394

                       ****Iteration    4****
   Time for densities:            0.000
   Time for RI-J (Direct):        0.033
   Time for K (COSX):             0.107
   Time for XC-Integration:       0.022
   Time for Sigma-Completion:     0.000
   Size of expansion space: 7
   Lowest Energy          :     0.128054092145
   Maximum Energy change  :     0.000002625672 (vector 0)
   Maximum residual norm  :     0.000000104348

      *** CONVERGENCE OF RESIDUAL NORM REACHED ***

Storing the converged CI vectors               ... acrolien.555.cis1

                 *** DAVIDSON DONE ***

Total time for solving the CIS problem:     0.853sec

------------------------------------
TD-DFT/TDA EXCITED STATES (SINGLETS)
------------------------------------

the weight of the individual excitations are printed if larger than 1.0e-02

STATE  1:  E=   0.128054 au      3.485 eV    28104.6 cm**-1 <S**2> =   0.000000
    14a ->  15a  :     0.984526 (c= -0.99223304)


-----------------------------
TD-DFT/TDA-EXCITATION SPECTRA
-----------------------------

Center of mass = (  0.5767, -0.9087, -0.0001)
Calculating the Dipole integrals                  ... done
Transforming integrals                            ... done
Calculating the Linear Momentum integrals         ... done
Transforming integrals                            ... done
Calculating angular momentum integrals            ... done
Transforming integrals                            ... done

-----------------------------------------------------------------------------
         ABSORPTION SPECTRUM VIA TRANSITION ELECTRIC DIPOLE MOMENTS
-----------------------------------------------------------------------------
State   Energy    Wavelength  fosc         T2        TX        TY        TZ  
        (cm-1)      (nm)                 (au**2)    (au)      (au)      (au) 
-----------------------------------------------------------------------------
   1   28104.6    355.8   0.001170287   0.01371  -0.11225  -0.00256  -0.03321

-----------------------------------------------------------------------------
         ABSORPTION SPECTRUM VIA TRANSITION VELOCITY DIPOLE MOMENTS
-----------------------------------------------------------------------------
State   Energy    Wavelength   fosc        P2         PX        PY        PZ  
        (cm-1)      (nm)                 (au**2)     (au)      (au)      (au) 
-----------------------------------------------------------------------------
   1   28104.6    355.8   0.000190121   0.00004   0.00274  -0.00278   0.00461

-------------------------------------------------------------------
                             CD SPECTRUM
-------------------------------------------------------------------
State  Energy     Wavelength     R         MX        MY        MZ   
       (cm-1)       (nm)     (1e40*cgs)   (au)      (au)      (au)  
-------------------------------------------------------------------
   1   28104.6    355.8      0.40466   0.00045  -0.42854   0.00573

-------------------------------------------------------------------
         CD SPECTRUM VIA TRANSITION VELOCITY DIPOLE MOMENTS        
-------------------------------------------------------------------
State  Energy     Wavelength     R         MX        MY        MZ   
       (cm-1)       (nm)     (1e40*cgs)   (au)      (au)      (au)  
-------------------------------------------------------------------
   1   28104.6    355.8      4.48376   0.00045  -0.42854   0.00573

Total run time:        1.206 sec

           *** ORCA-CIS/TD-DFT FINISHED WITHOUT ERROR ***

Maximum memory used throughout the entire CIS-calculation: 42.9 MB

-----------------------
CIS/TD-DFT TOTAL ENERGY
-----------------------

    E(SCF)  =   -191.716359634 Eh
    DE(CIS) =      0.128054092 Eh (Root  1)
    ----------------------------- ---------
    E(tot)  =   -191.588305541 Eh


-------------------------   --------------------
FINAL SINGLE POINT ENERGY      -191.588305541476
-------------------------   --------------------


                            ***************************************
                            *     ORCA property calculations      *
                            ***************************************

                                    ---------------------
                                    Active property flags
                                    ---------------------
   (+) Dipole Moment


------------------------------------------------------------------------------
                       ORCA ELECTRIC PROPERTIES CALCULATION
------------------------------------------------------------------------------

Dipole Moment Calculation                       ... on
Quadrupole Moment Calculation                   ... off
Polarizability Calculation                      ... off
GBWName                                         ... acrolien.555.gbw
Electron density                                ... acrolien.555.scfp
The origin for moment calculation is the CENTER OF MASS  = ( 0.576743, -0.908688 -0.000111)

-------------
DIPOLE MOMENT
-------------
                                X             Y             Z
Electronic contribution:     -2.03389      -1.55413       0.45593
Nuclear contribution   :      2.29510       2.51611      -0.56621
                        -----------------------------------------
Total Dipole Moment    :      0.26121       0.96199      -0.11028
                        -----------------------------------------
Magnitude (a.u.)       :      1.00290
Magnitude (Debye)      :      2.54917



--------------------
Rotational spectrum 
--------------------
 
Rotational constants in cm-1:     0.739846     0.202915     0.159735 
Rotational constants in MHz : 22180.027194  6083.240322  4788.721010 

 Dipole components along the rotational axes: 
x,y,z [a.u.] :     0.731502     0.676915    -0.111810 
x,y,z [Debye]:     1.859330     1.720581    -0.284199 

 

Timings for individual modules:

Sum of individual times         ...       63.537 sec (=   1.059 min)
GTO integral calculation        ...        1.326 sec (=   0.022 min)   2.1 %
SCF iterations                  ...       60.998 sec (=   1.017 min)  96.0 %
CIS module                      ...        1.214 sec (=   0.020 min)   1.9 %
                             ****ORCA TERMINATED NORMALLY****
TOTAL RUN TIME: 0 days 0 hours 1 minutes 3 seconds 711 msec
