
                                 *****************
                                 * O   R   C   A *
                                 *****************

                                            #,                                       
                                            ###                                      
                                            ####                                     
                                            #####                                    
                                            ######                                   
                                           ########,                                 
                                     ,,################,,,,,                         
                               ,,#################################,,                 
                          ,,##########################################,,             
                       ,#########################################, ''#####,          
                    ,#############################################,,   '####,        
                  ,##################################################,,,,####,       
                ,###########''''           ''''###############################       
              ,#####''   ,,,,##########,,,,          '''####'''          '####       
            ,##' ,,,,###########################,,,                        '##       
           ' ,,###''''                  '''############,,,                           
         ,,##''                                '''############,,,,        ,,,,,,###''
      ,#''                                            '''#######################'''  
     '                                                          ''''####''''         
             ,#######,   #######,   ,#######,      ##                                
            ,#'     '#,  ##    ##  ,#'     '#,    #''#        ######   ,####,        
            ##       ##  ##   ,#'  ##            #'  '#       #        #'  '#        
            ##       ##  #######   ##           ,######,      #####,   #    #        
            '#,     ,#'  ##    ##  '#,     ,#' ,#      #,         ##   #,  ,#        
             '#######'   ##     ##  '#######'  #'      '#     #####' # '####'        



                  #######################################################
                  #                        -***-                        #
                  #          Department of theory and spectroscopy      #
                  #    Directorship and core code : Frank Neese         #
                  #        Max Planck Institute fuer Kohlenforschung    #
                  #                Kaiser Wilhelm Platz 1               #
                  #                 D-45470 Muelheim/Ruhr               #
                  #                      Germany                        #
                  #                                                     #
                  #                  All rights reserved                #
                  #                        -***-                        #
                  #######################################################


                         Program Version 5.0.3 -  RELEASE  -


 With contributions from (in alphabetic order):
   Daniel Aravena         : Magnetic Suceptibility
   Michael Atanasov       : Ab Initio Ligand Field Theory (pilot matlab implementation)
   Alexander A. Auer      : GIAO ZORA, VPT2 properties, NMR spectrum
   Ute Becker             : Parallelization
   Giovanni Bistoni       : ED, misc. LED, open-shell LED, HFLD
   Martin Brehm           : Molecular dynamics
   Dmytro Bykov           : SCF Hessian
   Vijay G. Chilkuri      : MRCI spin determinant printing, contributions to CSF-ICE
   Dipayan Datta          : RHF DLPNO-CCSD density
   Achintya Kumar Dutta   : EOM-CC, STEOM-CC
   Dmitry Ganyushin       : Spin-Orbit,Spin-Spin,Magnetic field MRCI
   Miquel Garcia          : C-PCM and meta-GGA Hessian, CC/C-PCM, Gaussian charge scheme
   Yang Guo               : DLPNO-NEVPT2, F12-NEVPT2, CIM, IAO-localization
   Andreas Hansen         : Spin unrestricted coupled pair/coupled cluster methods
   Benjamin Helmich-Paris : MC-RPA, TRAH-SCF, COSX integrals
   Lee Huntington         : MR-EOM, pCC
   Robert Izsak           : Overlap fitted RIJCOSX, COSX-SCS-MP3, EOM
   Marcus Kettner         : VPT2
   Christian Kollmar      : KDIIS, OOCD, Brueckner-CCSD(T), CCSD density, CASPT2, CASPT2-K
   Simone Kossmann        : Meta GGA functionals, TD-DFT gradient, OOMP2, MP2 Hessian
   Martin Krupicka        : Initial AUTO-CI
   Lucas Lang             : DCDCAS
   Marvin Lechner         : AUTO-CI (C++ implementation), FIC-MRCC
   Dagmar Lenk            : GEPOL surface, SMD
   Dimitrios Liakos       : Extrapolation schemes; Compound Job, initial MDCI parallelization
   Dimitrios Manganas     : Further ROCIS development; embedding schemes
   Dimitrios Pantazis     : SARC Basis sets
   Anastasios Papadopoulos: AUTO-CI, single reference methods and gradients
   Taras Petrenko         : DFT Hessian,TD-DFT gradient, ASA, ECA, R-Raman, ABS, FL, XAS/XES, NRVS
   Peter Pinski           : DLPNO-MP2, DLPNO-MP2 Gradient
   Christoph Reimann      : Effective Core Potentials
   Marius Retegan         : Local ZFS, SOC
   Christoph Riplinger    : Optimizer, TS searches, QM/MM, DLPNO-CCSD(T), (RO)-DLPNO pert. Triples
   Tobias Risthaus        : Range-separated hybrids, TD-DFT gradient, RPA, STAB
   Michael Roemelt        : Original ROCIS implementation
   Masaaki Saitow         : Open-shell DLPNO-CCSD energy and density
   Barbara Sandhoefer     : DKH picture change effects
   Avijit Sen             : IP-ROCIS
   Kantharuban Sivalingam : CASSCF convergence, NEVPT2, FIC-MRCI
   Bernardo de Souza      : ESD, SOC TD-DFT
   Georgi Stoychev        : AutoAux, RI-MP2 NMR, DLPNO-MP2 response
   Willem Van den Heuvel  : Paramagnetic NMR
   Boris Wezisla          : Elementary symmetry handling
   Frank Wennmohs         : Technical directorship


 We gratefully acknowledge several colleagues who have allowed us to
 interface, adapt or use parts of their codes:
   Stefan Grimme, W. Hujo, H. Kruse, P. Pracht,  : VdW corrections, initial TS optimization,
                  C. Bannwarth, S. Ehlert          DFT functionals, gCP, sTDA/sTD-DF
   Ed Valeev, F. Pavosevic, A. Kumar             : LibInt (2-el integral package), F12 methods
   Garnet Chan, S. Sharma, J. Yang, R. Olivares  : DMRG
   Ulf Ekstrom                                   : XCFun DFT Library
   Mihaly Kallay                                 : mrcc  (arbitrary order and MRCC methods)
   Jiri Pittner, Ondrej Demel                    : Mk-CCSD
   Frank Weinhold                                : gennbo (NPA and NBO analysis)
   Christopher J. Cramer and Donald G. Truhlar   : smd solvation model
   Lars Goerigk                                  : TD-DFT with DH, B97 family of functionals
   V. Asgeirsson, H. Jonsson                     : NEB implementation
   FAccTs GmbH                                   : IRC, NEB, NEB-TS, DLPNO-Multilevel, CI-OPT
                                                   MM, QMMM, 2- and 3-layer-ONIOM, Crystal-QMMM,
                                                   LR-CPCM, SF, NACMEs, symmetry and pop. for TD-DFT,
                                                   nearIR, NL-DFT gradient (VV10), updates on ESD,
                                                   ML-optimized integration grids
   S Lehtola, MJT Oliveira, MAL Marques          : LibXC Library
   Liviu Ungur et al                             : ANISO software


 Your calculation uses the libint2 library for the computation of 2-el integrals
 For citations please refer to: http://libint.valeyev.net

 Your ORCA version has been built with support for libXC version: 5.1.0
 For citations please refer to: https://tddft.org/programs/libxc/

 This ORCA versions uses:
   CBLAS   interface :  Fast vector & matrix operations
   LAPACKE interface :  Fast linear algebra routines
   SCALAPACK package :  Parallel linear algebra routines
   Shared memory     :  Shared parallel matrices
   BLAS/LAPACK       :  OpenBLAS 0.3.15  USE64BITINT DYNAMIC_ARCH NO_AFFINITY Haswell SINGLE_THREADED
        Core in use  :  Haswell
   Copyright (c) 2011-2014, The OpenBLAS Project


================================================================================

----- Orbital basis set information -----
Your calculation utilizes the basis: 6-31G
   H-He, Li-Ne : W. J. Hehre, R. Ditchfield and J.A. Pople, J. Chem. Phys. 56, 2257 (1972).
                 Note: He and Ne are unpublished basis sets taken from the Gaussian program.
                 Note: Li and B from J. D. Dill and J. A. Pople, J. Chem. Phys. 62, 2921 (1975).
   Na - Ar     : M. M. Francl, W. J. Pietro, W. J. Hehre, J. S. Binkley, M. S. Gordon, 
                 D. J. DeFrees and J. A. Pople, J. Chem. Phys. 77, 3654 (1982).
   K - Zn      : V. A. Rassolov, J. A. Pople, M. A. Ratner, and T. L. Windus, J. Chem. Phys. 109, 1223 (1998).

----- AuxJ basis set information -----
Your calculation utilizes the auxiliary basis: def2/J
   F. Weigend, Phys. Chem. Chem. Phys. 8, 1057 (2006).

================================================================================
                                        WARNINGS
                       Please study these warnings very carefully!
================================================================================

INFO   : Checking CIS options ...

INFO   : the flag for use of the SHARK integral package has been found!

================================================================================
                                       INPUT FILE
================================================================================
NAME = acrolien.38.com
|  1> ! B3LYP 6-31G
|  2> !TightSCF
|  3> %scf
|  4>  ConvForced true
|  5>  convergence tight
|  6>  MaxIter 500
|  7> end
|  8>  
|  9> %tddft 
| 10>  nroots 1
| 11> end
| 12> 
| 13> # 	24535
| 14> * xyz 0 1
| 15> 		C   -0.587380  -0.436009  -0.016189
| 16> 		O   -0.555042  -1.610072   0.005312
| 17> 		C    0.634847   0.431874   0.058710
| 18> 		C    1.819388  -0.157318   0.013408
| 19> 		H   -1.578991   0.055595  -0.159585
| 20> 		H    0.484738   1.521877  -0.209641
| 21> 		H    1.929720  -1.395878  -0.203625
| 22> 		H    2.711503   0.551949  -0.191702
| 23> *
| 24> 
| 25>                          ****END OF INPUT****
================================================================================

                       ****************************
                       * Single Point Calculation *
                       ****************************

---------------------------------
CARTESIAN COORDINATES (ANGSTROEM)
---------------------------------
  C     -0.587380   -0.436009   -0.016189
  O     -0.555042   -1.610072    0.005312
  C      0.634847    0.431874    0.058710
  C      1.819388   -0.157318    0.013408
  H     -1.578991    0.055595   -0.159585
  H      0.484738    1.521877   -0.209641
  H      1.929720   -1.395878   -0.203625
  H      2.711503    0.551949   -0.191702

----------------------------
CARTESIAN COORDINATES (A.U.)
----------------------------
  NO LB      ZA    FRAG     MASS         X           Y           Z
   0 C     6.0000    0    12.011   -1.109987   -0.823938   -0.030593
   1 O     8.0000    0    15.999   -1.048877   -3.042595    0.010038
   2 C     6.0000    0    12.011    1.199687    0.816124    0.110946
   3 C     6.0000    0    12.011    3.438145   -0.297288    0.025337
   4 H     1.0000    0     1.008   -2.983861    0.105059   -0.301572
   5 H     1.0000    0     1.008    0.916022    2.875931   -0.396164
   6 H     1.0000    0     1.008    3.646642   -2.637827   -0.384795
   7 H     1.0000    0     1.008    5.123998    1.043032   -0.362264

--------------------------------
INTERNAL COORDINATES (ANGSTROEM)
--------------------------------
 C      0   0   0     0.000000000000     0.00000000     0.00000000
 O      1   0   0     1.174705055413     0.00000000     0.00000000
 C      1   2   0     1.500889603342   123.68308360     0.00000000
 C      3   1   2     1.323758612719   118.00920433     6.92064064
 H      1   2   3     1.116032831485   117.84381547   176.34224255
 H      3   1   2     1.132542057096   115.89789799   166.43408835
 H      4   3   1     1.262262788374   121.38807664     6.11905567
 H      4   3   1     1.158015096022   115.01233131   165.36605593

---------------------------
INTERNAL COORDINATES (A.U.)
---------------------------
 C      0   0   0     0.000000000000     0.00000000     0.00000000
 O      1   0   0     2.219870842864     0.00000000     0.00000000
 C      1   2   0     2.836270307565   123.68308360     0.00000000
 C      3   1   2     2.501541245459   118.00920433     6.92064064
 H      1   2   3     2.108996407972   117.84381547   176.34224255
 H      3   1   2     2.140194323059   115.89789799   166.43408835
 H      4   3   1     2.385330979066   121.38807664     6.11905567
 H      4   3   1     2.188331390427   115.01233131   165.36605593

---------------------
BASIS SET INFORMATION
---------------------
There are 3 groups of distinct atoms

 Group   1 Type C   : 10s4p contracted to 3s2p pattern {631/31}
 Group   2 Type O   : 10s4p contracted to 3s2p pattern {631/31}
 Group   3 Type H   : 4s contracted to 2s pattern {31}

Atom   0C    basis set group =>   1
Atom   1O    basis set group =>   2
Atom   2C    basis set group =>   1
Atom   3C    basis set group =>   1
Atom   4H    basis set group =>   3
Atom   5H    basis set group =>   3
Atom   6H    basis set group =>   3
Atom   7H    basis set group =>   3
---------------------------------
AUXILIARY/J BASIS SET INFORMATION
---------------------------------
There are 3 groups of distinct atoms

 Group   1 Type C   : 12s5p4d2f1g contracted to 6s4p3d1f1g pattern {711111/2111/211/2/1}
 Group   2 Type O   : 12s5p4d2f1g contracted to 6s4p3d1f1g pattern {711111/2111/211/2/1}
 Group   3 Type H   : 5s2p1d contracted to 3s1p1d pattern {311/2/1}

Atom   0C    basis set group =>   1
Atom   1O    basis set group =>   2
Atom   2C    basis set group =>   1
Atom   3C    basis set group =>   1
Atom   4H    basis set group =>   3
Atom   5H    basis set group =>   3
Atom   6H    basis set group =>   3
Atom   7H    basis set group =>   3
------------------------------------------------------------------------------
                           ORCA GTO INTEGRAL CALCULATION
                           -- RI-GTO INTEGRALS CHOSEN --
------------------------------------------------------------------------------
------------------------------------------------------------------------------
                   ___                                                        
                  /   \      - P O W E R E D   B Y -                         
                 /     \                                                     
                 |  |  |   _    _      __       _____    __    __             
                 |  |  |  | |  | |    /  \     |  _  \  |  |  /  |          
                  \  \/   | |  | |   /    \    | | | |  |  | /  /          
                 / \  \   | |__| |  /  /\  \   | |_| |  |  |/  /          
                |  |  |   |  __  | /  /__\  \  |    /   |      \           
                |  |  |   | |  | | |   __   |  |    \   |  |\   \          
                \     /   | |  | | |  |  |  |  | |\  \  |  | \   \       
                 \___/    |_|  |_| |__|  |__|  |_| \__\ |__|  \__/        
                                                                              
                      - O R C A' S   B I G   F R I E N D -                    
                                      &                                       
                       - I N T E G R A L  F E E D E R -                       
                                                                              
 v1 FN, 2020, v2 2021                                                         
------------------------------------------------------------------------------


Reading SHARK input file acrolien.38.SHARKINP.tmp ... ok
----------------------
SHARK INTEGRAL PACKAGE
----------------------

Number of atoms                             ...      8
Number of basis functions                   ...     44
Number of shells                            ...     28
Maximum angular momentum                    ...      1
Integral batch strategy                     ... SHARK/LIBINT Hybrid
RI-J (if used) integral strategy            ... SPLIT-RIJ (Revised 2003 algorithm where possible)
Printlevel                                  ...      1
Contraction scheme used                     ... SEGMENTED contraction
Coulomb Range Separation                    ... NOT USED
Exchange Range Separation                   ... NOT USED
Finite Nucleus Model                        ... NOT USED
Auxiliary Coulomb fitting basis             ... AVAILABLE
   # of basis functions in Aux-J            ...    240
   # of shells in Aux-J                     ...     80
   Maximum angular momentum in Aux-J        ...      4
Auxiliary J/K fitting basis                 ... NOT available
Auxiliary Correlation fitting basis         ... NOT available
Auxiliary 'external' fitting basis          ... NOT available
Integral threshold                          ...     2.500000e-11
Primitive cut-off                           ...     2.500000e-12
Primitive pair pre-selection threshold      ...     2.500000e-12

Calculating pre-screening integrals         ... done (  0.0 sec) Dimension = 28
Organizing shell pair data                  ... done (  0.1 sec)
Shell pair information
Total number of shell pairs                 ...       406
Shell pairs after pre-screening             ...       402
Total number of primitive shell pairs       ...      2724
Primitive shell pairs kept                  ...      2018
          la=0 lb=0:    206 shell pairs
          la=1 lb=0:    160 shell pairs
          la=1 lb=1:     36 shell pairs

Calculating one electron integrals          ... done (  0.0 sec)
Calculating RI/J V-Matrix + Cholesky decomp.... done (  0.1 sec)
Calculating Nuclear repulsion               ... done (  0.0 sec) ENN=    104.904235991071 Eh

SHARK setup successfully completed in   0.8 seconds

Maximum memory used throughout the entire GTOINT-calculation: 8.3 MB
-------------------------------------------------------------------------------
                                 ORCA SCF
-------------------------------------------------------------------------------

------------
SCF SETTINGS
------------
Hamiltonian:
 Density Functional     Method          .... DFT(GTOs)
 Exchange Functional    Exchange        .... B88
   X-Alpha parameter    XAlpha          ....  0.666667
   Becke's b parameter  XBeta           ....  0.004200
 Correlation Functional Correlation     .... LYP
 LDA part of GGA corr.  LDAOpt          .... VWN-5
 Gradients option       PostSCFGGA      .... off
 Hybrid DFT is turned on
   Fraction HF Exchange ScalHFX         ....  0.200000
   Scaling of DF-GGA-X  ScalDFX         ....  0.720000
   Scaling of DF-GGA-C  ScalDFC         ....  0.810000
   Scaling of DF-LDA-C  ScalLDAC        ....  1.000000
   Perturbative correction              ....  0.000000
   Density functional embedding theory  .... OFF
   NL short-range parameter             ....  4.800000
 RI-approximation to the Coulomb term is turned on
   Number of AuxJ basis functions       .... 240
   RIJ-COSX (HFX calculated with COS-X)).... on


General Settings:
 Integral files         IntName         .... acrolien.38
 Hartree-Fock type      HFTyp           .... RHF
 Total Charge           Charge          ....    0
 Multiplicity           Mult            ....    1
 Number of Electrons    NEL             ....   30
 Basis Dimension        Dim             ....   44
 Nuclear Repulsion      ENuc            ....    104.9042359911 Eh

Convergence Acceleration:
 DIIS                   CNVDIIS         .... on
   Start iteration      DIISMaxIt       ....    12
   Startup error        DIISStart       ....  0.200000
   # of expansion vecs  DIISMaxEq       ....     5
   Bias factor          DIISBfac        ....   1.050
   Max. coefficient     DIISMaxC        ....  10.000
 Trust-Rad. Augm. Hess. CNVTRAH         .... auto
   Auto Start mean grad. ratio tolernc. ....  1.125000
   Auto Start start iteration           ....    20
   Auto Start num. interpolation iter.  ....    10
   Max. Number of Micro iterations      ....    16
   Max. Number of Macro iterations      .... Maxiter - #DIIS iter
   Number of Davidson start vectors     ....     2
   Converg. threshold I  (grad. norm)   ....   1.000e-05
   Converg. threshold II (energy diff.) ....   1.000e-08
   Grad. Scal. Fac. for Micro threshold ....   0.100
   Minimum threshold for Micro iter.    ....   0.010
   NR start threshold (gradient norm)   ....   0.001
   Initial trust radius                 ....   0.400
   Minimum AH scaling param. (alpha)    ....   1.000
   Maximum AH scaling param. (alpha)    .... 1000.000
   Orbital update algorithm             .... Taylor
   White noise on init. David. guess    .... on
   Maximum white noise                  ....   0.010
   Quad. conv. algorithm                .... NR
 SOSCF                  CNVSOSCF        .... on
   Start iteration      SOSCFMaxIt      ....   150
   Startup grad/error   SOSCFStart      ....  0.003300
 Level Shifting         CNVShift        .... on
   Level shift para.    LevelShift      ....    0.2500
   Turn off err/grad.   ShiftErr        ....    0.0010
 Zerner damping         CNVZerner       .... off
 Static damping         CNVDamp         .... on
   Fraction old density DampFac         ....    0.7000
   Max. Damping (<1)    DampMax         ....    0.9800
   Min. Damping (>=0)   DampMin         ....    0.0000
   Turn off err/grad.   DampErr         ....    0.1000
 Fernandez-Rico         CNVRico         .... off

SCF Procedure:
 Maximum # iterations   MaxIter         ....   500
 SCF integral mode      SCFMode         .... Direct
   Integral package                     .... SHARK and LIBINT hybrid scheme
 Reset frequency        DirectResetFreq ....    20
 Integral Threshold     Thresh          ....  2.500e-11 Eh
 Primitive CutOff       TCut            ....  2.500e-12 Eh

Convergence Tolerance:
 Convergence Check Mode ConvCheckMode   .... Total+1el-Energy
 Convergence forced     ConvForced      .... 1
 Energy Change          TolE            ....  1.000e-08 Eh
 1-El. energy change                    ....  1.000e-05 Eh
 Orbital Gradient       TolG            ....  1.000e-05
 Orbital Rotation angle TolX            ....  1.000e-05
 DIIS Error             TolErr          ....  5.000e-07


Diagonalization of the overlap matrix:
Smallest eigenvalue                        ... 5.224e-03
Time for diagonalization                   ...    0.059 sec
Threshold for overlap eigenvalues          ... 1.000e-08
Number of eigenvalues below threshold      ... 0
Time for construction of square roots      ...    0.071 sec
Total time needed                          ...    0.129 sec

Time for model grid setup =    0.168 sec

------------------------------
INITIAL GUESS: MODEL POTENTIAL
------------------------------
Loading Hartree-Fock densities                     ... done
Calculating cut-offs                               ... done
Initializing the effective Hamiltonian             ... done
Setting up the integral package (SHARK)            ... done
Starting the Coulomb interaction                   ... done (   0.9 sec)
Reading the grid                                   ... done
Mapping shells                                     ... done
Starting the XC term evaluation                    ... done (   0.0 sec)
  promolecular density results
     # of electrons  =     29.999620980
     EX              =    -24.720025274
     EC              =     -0.994455699
     EX+EC           =    -25.714480973
Transforming the Hamiltonian                       ... done (   0.0 sec)
Diagonalizing the Hamiltonian                      ... done (   0.0 sec)
Back transforming the eigenvectors                 ... done (   0.0 sec)
Now organizing SCF variables                       ... done
                      ------------------
                      INITIAL GUESS DONE (   1.6 sec)
                      ------------------
-------------------
DFT GRID GENERATION
-------------------

General Integration Accuracy     IntAcc      ... 4.388
Radial Grid Type                 RadialGrid  ... OptM3 with GC (2021)
Angular Grid (max. ang.)         AngularGrid ... 4 (Lebedev-302)
Angular grid pruning method      GridPruning ... 4 (adaptive)
Weight generation scheme         WeightScheme... Becke
Basis function cutoff            BFCut       ... 1.0000e-11
Integration weight cutoff        WCut        ... 1.0000e-14
Angular grids for H and He will be reduced by one unit
Partially contracted basis set               ... off
Rotationally invariant grid construction     ... off

Total number of grid points                  ...    37401
Total number of batches                      ...      589
Average number of points per batch           ...       63
Average number of grid points per atom       ...     4675
Time for grid setup =    0.532 sec

--------------------
COSX GRID GENERATION
--------------------

GRIDX 1
-------
General Integration Accuracy     IntAcc      ... 3.816
Radial Grid Type                 RadialGrid  ... OptM3 with GC (2021)
Angular Grid (max. ang.)         AngularGrid ... 1 (Lebedev-50)
Angular grid pruning method      GridPruning ... 4 (adaptive)
Weight generation scheme         WeightScheme... Becke
Basis function cutoff            BFCut       ... 1.0000e-11
Integration weight cutoff        WCut        ... 1.0000e-14
Angular grids for H and He will be reduced by one unit
Partially contracted basis set               ... on
Rotationally invariant grid construction     ... off

Total number of grid points                  ...     4802
Total number of batches                      ...       79
Average number of points per batch           ...       60
Average number of grid points per atom       ...      600
UseSFitting                                  ... on

GRIDX 2
-------
General Integration Accuracy     IntAcc      ... 4.020
Radial Grid Type                 RadialGrid  ... OptM3 with GC (2021)
Angular Grid (max. ang.)         AngularGrid ... 2 (Lebedev-110)
Angular grid pruning method      GridPruning ... 4 (adaptive)
Weight generation scheme         WeightScheme... Becke
Basis function cutoff            BFCut       ... 1.0000e-11
Integration weight cutoff        WCut        ... 1.0000e-14
Angular grids for H and He will be reduced by one unit
Partially contracted basis set               ... on
Rotationally invariant grid construction     ... off

Total number of grid points                  ...    10566
Total number of batches                      ...      167
Average number of points per batch           ...       63
Average number of grid points per atom       ...     1321
UseSFitting                                  ... on

GRIDX 3
-------
General Integration Accuracy     IntAcc      ... 4.338
Radial Grid Type                 RadialGrid  ... OptM3 with GC (2021)
Angular Grid (max. ang.)         AngularGrid ... 3 (Lebedev-194)
Angular grid pruning method      GridPruning ... 4 (adaptive)
Weight generation scheme         WeightScheme... Becke
Basis function cutoff            BFCut       ... 1.0000e-11
Integration weight cutoff        WCut        ... 1.0000e-14
Angular grids for H and He will be reduced by one unit
Partially contracted basis set               ... on
Rotationally invariant grid construction     ... off

Total number of grid points                  ...    23288
Total number of batches                      ...      368
Average number of points per batch           ...       63
Average number of grid points per atom       ...     2911
UseSFitting                                  ... on

Time for X-Grid setup             =    3.171 sec

--------------
SCF ITERATIONS
--------------
ITER       Energy         Delta-E        Max-DP      RMS-DP      [F,P]     Damp
               ***  Starting incremental Fock matrix formation  ***
  0   -191.5817586955   0.000000000000 0.10185933  0.00781645  0.2574911 0.7000
  1   -191.6432067496  -0.061448054069 0.06008138  0.00478933  0.0985353 0.7000
                               ***Turning on DIIS***
  2   -191.6634606246  -0.020253875020 0.06348077  0.00609327  0.0311183 0.0000
  3   -191.6997531071  -0.036292482486 0.04027394  0.00353689  0.0511230 0.0000
  4   -191.7061616264  -0.006408519343 0.01015401  0.00108945  0.0197677 0.0000
                      *** Initiating the SOSCF procedure ***
                           *** Shutting down DIIS ***
                      *** Re-Reading the Fockian *** 
                      *** Removing any level shift *** 
ITER      Energy       Delta-E        Grad      Rot      Max-DP    RMS-DP
  5   -191.70703905  -0.0008774233  0.000706  0.000706  0.003975  0.000284
               *** Restarting incremental Fock matrix formation ***
  6   -191.70704526  -0.0000062128  0.000442  0.001290  0.001824  0.000164
  7   -191.70704409   0.0000011679  0.000596  0.000695  0.001034  0.000073
  8   -191.70704772  -0.0000036271  0.000101  0.000217  0.000323  0.000034
  9   -191.70704765   0.0000000766  0.000124  0.000117  0.000189  0.000016
 10   -191.70704786  -0.0000002109  0.000022  0.000092  0.000099  0.000007
 11   -191.70704784   0.0000000136  0.000042  0.000062  0.000069  0.000005
                  ***Gradient check signals convergence***
              ***Rediagonalizing the Fockian in SOSCF/NRSCF***

               *****************************************************
               *                     SUCCESS                       *
               *           SCF CONVERGED AFTER  12 CYCLES          *
               *****************************************************

Old exchange energy                            =     -5.006796236 Eh
New exchange energy                            =     -5.006800519 Eh
Exchange energy change after final integration =     -0.000004283 Eh
Total energy after final integration           =   -191.707052144 Eh
Final COS-X integration done in                =     0.818 sec

----------------
TOTAL SCF ENERGY
----------------

Total Energy       :         -191.70705214 Eh           -5216.61410 eV

Components:
Nuclear Repulsion  :          104.90423599 Eh            2854.58939 eV
Electronic Energy  :         -296.61128814 Eh           -8071.20348 eV
One Electron Energy:         -466.83177225 Eh          -12703.13834 eV
Two Electron Energy:          170.22048411 Eh            4631.93486 eV
Max COSX asymmetry :            0.00000246 Eh               0.00007 eV

Virial components:
Potential Energy   :         -382.41382521 Eh          -10406.00922 eV
Kinetic Energy     :          190.70677306 Eh            5189.39512 eV
Virial Ratio       :            2.00524512


DFT components:
N(Alpha)           :       15.000000489690 electrons
N(Beta)            :       15.000000489690 electrons
N(Total)           :       30.000000979381 electrons
E(X)               :      -19.936956762674 Eh       
E(C)               :       -1.180945861852 Eh       
E(XC)              :      -21.117902624526 Eh       
DFET-embed. en.    :        0.000000000000 Eh       

---------------
SCF CONVERGENCE
---------------

  Last Energy change         ...   -1.9087e-08  Tolerance :   1.0000e-08
  Last MAX-Density change    ...    1.5057e-15  Tolerance :   1.0000e-07
  Last RMS-Density change    ...    8.1487e-17  Tolerance :   5.0000e-09
  Last Orbital Gradient      ...    6.3795e-07  Tolerance :   1.0000e-05
  Last Orbital Rotation      ...    8.0464e-07  Tolerance :   1.0000e-05

             **** THE GBW FILE WAS UPDATED (acrolien.38.gbw) ****
             **** DENSITY acrolien.38.scfp WAS UPDATED ****
             **** ENERGY FILE WAS UPDATED (acrolien.38.en.tmp) ****
             **** THE GBW FILE WAS UPDATED (acrolien.38.gbw) ****
             **** DENSITY acrolien.38.scfp WAS UPDATED ****
----------------
ORBITAL ENERGIES
----------------

  NO   OCC          E(Eh)            E(eV) 
   0   2.0000     -19.148122      -521.0469 
   1   2.0000     -10.276550      -279.6391 
   2   2.0000     -10.224329      -278.2181 
   3   2.0000     -10.205007      -277.6924 
   4   2.0000      -1.094089       -29.7717 
   5   2.0000      -0.795861       -21.6565 
   6   2.0000      -0.642372       -17.4798 
   7   2.0000      -0.532682       -14.4950 
   8   2.0000      -0.507182       -13.8011 
   9   2.0000      -0.442026       -12.0281 
  10   2.0000      -0.423051       -11.5118 
  11   2.0000      -0.415997       -11.3198 
  12   2.0000      -0.366817        -9.9816 
  13   2.0000      -0.288581        -7.8527 
  14   2.0000      -0.254416        -6.9230 
  15   0.0000      -0.062534        -1.7016 
  16   0.0000       0.054131         1.4730 
  17   0.0000       0.087003         2.3675 
  18   0.0000       0.092850         2.5266 
  19   0.0000       0.153055         4.1648 
  20   0.0000       0.177073         4.8184 
  21   0.0000       0.266406         7.2493 
  22   0.0000       0.323328         8.7982 
  23   0.0000       0.327987         8.9250 
  24   0.0000       0.510199        13.8832 
  25   0.0000       0.533017        14.5041 
  26   0.0000       0.578689        15.7469 
  27   0.0000       0.629319        17.1247 
  28   0.0000       0.636525        17.3207 
  29   0.0000       0.662958        18.0400 
  30   0.0000       0.722721        19.6662 
  31   0.0000       0.756925        20.5970 
  32   0.0000       0.783331        21.3155 
  33   0.0000       0.809652        22.0318 
  34   0.0000       0.848871        23.0989 
  35   0.0000       0.877574        23.8800 
  36   0.0000       0.938610        25.5409 
  37   0.0000       0.992794        27.0153 
  38   0.0000       0.995501        27.0889 
  39   0.0000       1.113512        30.3002 
  40   0.0000       1.138513        30.9805 
  41   0.0000       1.180191        32.1146 
  42   0.0000       1.222325        33.2612 
  43   0.0000       1.771780        48.2126 

                    ********************************
                    * MULLIKEN POPULATION ANALYSIS *
                    ********************************

-----------------------
MULLIKEN ATOMIC CHARGES
-----------------------
   0 C :    0.170392
   1 O :   -0.341797
   2 C :   -0.118789
   3 C :   -0.261302
   4 H :    0.097965
   5 H :    0.142890
   6 H :    0.172507
   7 H :    0.138134
Sum of atomic charges:    0.0000000

--------------------------------
MULLIKEN REDUCED ORBITAL CHARGES
--------------------------------
  0 C s       :     3.177223  s :     3.177223
      pz      :     0.797819  p :     2.652385
      px      :     1.041450
      py      :     0.813116
  1 O s       :     3.921714  s :     3.921714
      pz      :     1.293569  p :     4.420083
      px      :     1.789359
      py      :     1.337156
  2 C s       :     3.220559  s :     3.220559
      pz      :     1.021521  p :     2.898230
      px      :     0.900350
      py      :     0.976358
  3 C s       :     3.350258  s :     3.350258
      pz      :     0.892966  p :     2.911044
      px      :     0.988389
      py      :     1.029689
  4 H s       :     0.902035  s :     0.902035
  5 H s       :     0.857110  s :     0.857110
  6 H s       :     0.827493  s :     0.827493
  7 H s       :     0.861866  s :     0.861866


                     *******************************
                     * LOEWDIN POPULATION ANALYSIS *
                     *******************************

----------------------
LOEWDIN ATOMIC CHARGES
----------------------
   0 C :    0.106582
   1 O :   -0.215041
   2 C :   -0.195723
   3 C :   -0.159227
   4 H :    0.069008
   5 H :    0.124894
   6 H :    0.145552
   7 H :    0.123954

-------------------------------
LOEWDIN REDUCED ORBITAL CHARGES
-------------------------------
  0 C s       :     2.974796  s :     2.974796
      pz      :     0.800140  p :     2.918623
      px      :     1.084446
      py      :     1.034038
  1 O s       :     3.606333  s :     3.606333
      pz      :     1.294377  p :     4.608708
      px      :     1.837960
      py      :     1.476370
  2 C s       :     2.993771  s :     2.993771
      pz      :     1.013870  p :     3.201951
      px      :     1.098410
      py      :     1.089671
  3 C s       :     3.049006  s :     3.049006
      pz      :     0.900545  p :     3.110221
      px      :     1.103602
      py      :     1.106074
  4 H s       :     0.930992  s :     0.930992
  5 H s       :     0.875106  s :     0.875106
  6 H s       :     0.854448  s :     0.854448
  7 H s       :     0.876046  s :     0.876046


                      *****************************
                      * MAYER POPULATION ANALYSIS *
                      *****************************

  NA   - Mulliken gross atomic population
  ZA   - Total nuclear charge
  QA   - Mulliken gross atomic charge
  VA   - Mayer's total valence
  BVA  - Mayer's bonded valence
  FA   - Mayer's free valence

  ATOM       NA         ZA         QA         VA         BVA        FA
  0 C      5.8296     6.0000     0.1704     3.7613     3.7613     0.0000
  1 O      8.3418     8.0000    -0.3418     2.0558     2.0558    -0.0000
  2 C      6.1188     6.0000    -0.1188     3.7047     3.7047     0.0000
  3 C      6.2613     6.0000    -0.2613     3.8021     3.8021     0.0000
  4 H      0.9020     1.0000     0.0980     0.9309     0.9309     0.0000
  5 H      0.8571     1.0000     0.1429     0.9452     0.9452     0.0000
  6 H      0.8275     1.0000     0.1725     0.9548     0.9548    -0.0000
  7 H      0.8619     1.0000     0.1381     0.9497     0.9497     0.0000

  Mayer bond orders larger than 0.100000
B(  0-C ,  1-O ) :   1.8996 B(  0-C ,  2-C ) :   0.9529 B(  0-C ,  4-H ) :   0.8782 
B(  2-C ,  3-C ) :   1.8431 B(  2-C ,  5-H ) :   0.9292 B(  3-C ,  6-H ) :   0.9221 
B(  3-C ,  7-H ) :   0.9385 

-------
TIMINGS
-------

Total SCF time: 0 days 0 hours 0 min 52 sec 

Total time                  ....      52.342 sec
Sum of individual times     ....      41.163 sec  ( 78.6%)

Fock matrix formation       ....      35.288 sec  ( 67.4%)
  Split-RI-J                ....       0.590 sec  (  1.7% of F)
  Chain of spheres X        ....       4.510 sec  ( 12.8% of F)
  XC integration            ....      14.276 sec  ( 40.5% of F)
    Basis function eval.    ....       0.935 sec  (  6.6% of XC)
    Density eval.           ....       0.486 sec  (  3.4% of XC)
    XC-Functional eval.     ....       0.540 sec  (  3.8% of XC)
    XC-Potential eval.      ....       0.237 sec  (  1.7% of XC)
Diagonalization             ....       0.003 sec  (  0.0%)
Density matrix formation    ....       0.000 sec  (  0.0%)
Population analysis         ....       0.002 sec  (  0.0%)
Initial guess               ....       1.386 sec  (  2.6%)
Orbital Transformation      ....       0.000 sec  (  0.0%)
Orbital Orthonormalization  ....       0.000 sec  (  0.0%)
DIIS solution               ....       0.001 sec  (  0.0%)
SOSCF solution              ....       0.611 sec  (  1.2%)
Grid generation             ....       3.871 sec  (  7.4%)

Maximum memory used throughout the entire SCF-calculation: 46.8 MB
------------------------------------------------------------------------------
                        ORCA TD-DFT/TDA CALCULATION
------------------------------------------------------------------------------

Input orbitals are from        ... acrolien.38.gbw
CI-vector output               ... acrolien.38.cis
Tamm-Dancoff approximation     ... operative
CIS-Integral strategy          ... AO-integrals
Integral handling              ... AO integral Direct
Max. core memory used          ... 512 MB
Reference state                ... RHF
Generation of triplets         ... off
Follow IRoot                   ... off
Number of operators            ... 1
Orbital ranges used for CIS calculation:
 Operator 0:  Orbitals   4... 14  to  15... 43
XAS localization array:
 Operator 0:  Orbitals  -1... -1

-------------------
XC-INTEGRATION GRID
-------------------

General Integration Accuracy     IntAcc      ... 3.467
Radial Grid Type                 RadialGrid  ... OptM3 with GC (2021)
Angular Grid (max. ang.)         AngularGrid ... 1 (Lebedev-50)
Angular grid pruning method      GridPruning ... 4 (adaptive)
Weight generation scheme         WeightScheme... Becke
Basis function cutoff            BFCut       ... 1.0000e-11
Integration weight cutoff        WCut        ... 1.0000e-14
Angular grids for H and He will be reduced by one unit
Partially contracted basis set               ... off
Rotationally invariant grid construction     ... off

Total number of grid points                  ...     5497
Total number of batches                      ...       91
Average number of points per batch           ...       60
Average number of grid points per atom       ...      687

---------------------
COSX-INTEGRATION GRID
---------------------

General Integration Accuracy     IntAcc      ... 3.067
Radial Grid Type                 RadialGrid  ... OptM3 with GC (2021)
Angular Grid (max. ang.)         AngularGrid ... 1 (Lebedev-50)
Angular grid pruning method      GridPruning ... 4 (adaptive)
Weight generation scheme         WeightScheme... Becke
Basis function cutoff            BFCut       ... 1.0000e-11
Integration weight cutoff        WCut        ... 1.0000e-14
Angular grids for H and He will be reduced by one unit
Partially contracted basis set               ... on
Rotationally invariant grid construction     ... off

Total number of grid points                  ...     2510
Total number of batches                      ...       46
Average number of points per batch           ...       54
Average number of grid points per atom       ...      314

---------------
TD-DFT XC SETUP
---------------

DFT calculation                         ... on
Name of the grid file                   ... acrolien.38.grid_cis.tmp
Exchange functional (TD-DFT)            ... B88
   X-Alpha parameter    XAlpha (TD-DFT) ...  0.666667
   Becke's b parameter  XBeta (TD-DFT)  ...  0.004200
Correlation functional (TD-DFT)         ... LYP
 LDA part of GGA corr.  LDAOpt (TD-DFT) ... VWN-5
Hybrid DFT                              ... on
   Exchange mixing (TD-DFT)             ...  0.200
   GGA exch. scaling (TD-DFT)           ...  0.720
   GGA corr. scaling (TD-DFT)           ...  0.810

Building densities             ... done
Calculating rho(r) on the grid ... done
Building xc-kernel on the grid ... done
                    *** TD-DFT CALCULATION INITIALIZED ***

------------------------
DAVIDSON-DIAGONALIZATION
------------------------

Dimension of the eigenvalue problem            ...    319
Number of roots to be determined               ...      1
Maximum size of the expansion space            ...     10
Maximum number of iterations                   ...    100
Convergence tolerance for the residual         ...    2.500e-07
Convergence tolerance for the energies         ...    2.500e-07
Orthogonality tolerance                        ...    1.000e-14
Level Shift                                    ...    0.000e+00
Constructing the preconditioner                ... o.k.
Building the initial guess                     ... o.k.
Number of trial vectors determined             ...     10


                       ****Iteration    0****

   Memory handling for direct AO based CIS:
   Memory per vector needed      ...     1 MB
   Memory needed                 ...     0 MB
   Memory available              ...   512 MB
   Number of vectors per batch   ...   512
   Number of batches             ...     1
   Time for densities:            0.000
   Time for RI-J (Direct):        0.043
   Time for K (COSX):             0.480
   Time for XC-Integration:       0.039
   Time for Sigma-Completion:     0.001
   Size of expansion space: 3
   Lowest Energy          :     0.136321996192
   Maximum Energy change  :     0.136321996192 (vector 0)
   Maximum residual norm  :     0.000689949058

                       ****Iteration    1****
   Time for densities:            0.000
   Time for RI-J (Direct):        0.034
   Time for K (COSX):             0.343
   Time for XC-Integration:       0.022
   Time for Sigma-Completion:     0.000
   Size of expansion space: 4
   Lowest Energy          :     0.133652791053
   Maximum Energy change  :     0.002669205139 (vector 0)
   Maximum residual norm  :     0.000068255396

                       ****Iteration    2****
   Time for densities:            0.000
   Time for RI-J (Direct):        0.034
   Time for K (COSX):             0.107
   Time for XC-Integration:       0.022
   Time for Sigma-Completion:     0.000
   Size of expansion space: 5
   Lowest Energy          :     0.133553596961
   Maximum Energy change  :     0.000099194092 (vector 0)
   Maximum residual norm  :     0.000016167228

                       ****Iteration    3****
   Time for densities:            0.000
   Time for RI-J (Direct):        0.034
   Time for K (COSX):             0.453
   Time for XC-Integration:       0.022
   Time for Sigma-Completion:     0.000
   Size of expansion space: 6
   Lowest Energy          :     0.133535986639
   Maximum Energy change  :     0.000017610322 (vector 0)
   Maximum residual norm  :     0.000001001959

                       ****Iteration    4****
   Time for densities:            0.000
   Time for RI-J (Direct):        0.035
   Time for K (COSX):             0.330
   Time for XC-Integration:       0.023
   Time for Sigma-Completion:     0.000
   Size of expansion space: 7
   Lowest Energy          :     0.133534783627
   Maximum Energy change  :     0.000001203011 (vector 0)
   Maximum residual norm  :     0.000000072803

      *** CONVERGENCE OF RESIDUAL NORM REACHED ***

Storing the converged CI vectors               ... acrolien.38.cis1

                 *** DAVIDSON DONE ***

Total time for solving the CIS problem:     2.570sec

------------------------------------
TD-DFT/TDA EXCITED STATES (SINGLETS)
------------------------------------

the weight of the individual excitations are printed if larger than 1.0e-02

STATE  1:  E=   0.133535 au      3.634 eV    29307.5 cm**-1 <S**2> =   0.000000
    14a ->  15a  :     0.980664 (c= -0.99028467)
    14a ->  16a  :     0.015369 (c=  0.12397195)


-----------------------------
TD-DFT/TDA-EXCITATION SPECTRA
-----------------------------

Center of mass = (  0.5770, -0.9087, -0.0005)
Calculating the Dipole integrals                  ... done
Transforming integrals                            ... done
Calculating the Linear Momentum integrals         ... done
Transforming integrals                            ... done
Calculating angular momentum integrals            ... done
Transforming integrals                            ... done

-----------------------------------------------------------------------------
         ABSORPTION SPECTRUM VIA TRANSITION ELECTRIC DIPOLE MOMENTS
-----------------------------------------------------------------------------
State   Energy    Wavelength  fosc         T2        TX        TY        TZ  
        (cm-1)      (nm)                 (au**2)    (au)      (au)      (au) 
-----------------------------------------------------------------------------
   1   29307.5    341.2   0.000242295   0.00272   0.03035   0.03071  -0.02929

-----------------------------------------------------------------------------
         ABSORPTION SPECTRUM VIA TRANSITION VELOCITY DIPOLE MOMENTS
-----------------------------------------------------------------------------
State   Energy    Wavelength   fosc        P2         PX        PY        PZ  
        (cm-1)      (nm)                 (au**2)     (au)      (au)      (au) 
-----------------------------------------------------------------------------
   1   29307.5    341.2   0.000554728   0.00011  -0.00214  -0.00129   0.01024

-------------------------------------------------------------------
                             CD SPECTRUM
-------------------------------------------------------------------
State  Energy     Wavelength     R         MX        MY        MZ   
       (cm-1)       (nm)     (1e40*cgs)   (au)      (au)      (au)  
-------------------------------------------------------------------
   1   29307.5    341.2     -5.04241  -0.02839  -0.33602  -0.01652

-------------------------------------------------------------------
         CD SPECTRUM VIA TRANSITION VELOCITY DIPOLE MOMENTS        
-------------------------------------------------------------------
State  Energy     Wavelength     R         MX        MY        MZ   
       (cm-1)       (nm)     (1e40*cgs)   (au)      (au)      (au)  
-------------------------------------------------------------------
   1   29307.5    341.2      1.14468  -0.02839  -0.33602  -0.01652

Total run time:        4.782 sec

           *** ORCA-CIS/TD-DFT FINISHED WITHOUT ERROR ***

Maximum memory used throughout the entire CIS-calculation: 42.9 MB

-----------------------
CIS/TD-DFT TOTAL ENERGY
-----------------------

    E(SCF)  =   -191.707052144 Eh
    DE(CIS) =      0.133534784 Eh (Root  1)
    ----------------------------- ---------
    E(tot)  =   -191.573517360 Eh


-------------------------   --------------------
FINAL SINGLE POINT ENERGY      -191.573517360387
-------------------------   --------------------


                            ***************************************
                            *     ORCA property calculations      *
                            ***************************************

                                    ---------------------
                                    Active property flags
                                    ---------------------
   (+) Dipole Moment


------------------------------------------------------------------------------
                       ORCA ELECTRIC PROPERTIES CALCULATION
------------------------------------------------------------------------------

Dipole Moment Calculation                       ... on
Quadrupole Moment Calculation                   ... off
Polarizability Calculation                      ... off
GBWName                                         ... acrolien.38.gbw
Electron density                                ... acrolien.38.scfp
The origin for moment calculation is the CENTER OF MASS  = ( 0.576990, -0.908707 -0.000469)

-------------
DIPOLE MOMENT
-------------
                                X             Y             Z
Electronic contribution:     -1.82202      -1.55053       0.49906
Nuclear contribution   :      2.16915       2.47605      -0.71627
                        -----------------------------------------
Total Dipole Moment    :      0.34713       0.92552      -0.21721
                        -----------------------------------------
Magnitude (a.u.)       :      1.01206
Magnitude (Debye)      :      2.57245



--------------------
Rotational spectrum 
--------------------
 
Rotational constants in cm-1:     0.745724     0.215883     0.168071 
Rotational constants in MHz : 22356.230873  6472.024178  5038.635868 

 Dipole components along the rotational axes: 
x,y,z [a.u.] :     0.784034    -0.601352    -0.218936 
x,y,z [Debye]:     1.992856    -1.528516    -0.556491 

 

Timings for individual modules:

Sum of individual times         ...       58.878 sec (=   0.981 min)
GTO integral calculation        ...        1.029 sec (=   0.017 min)   1.7 %
SCF iterations                  ...       52.871 sec (=   0.881 min)  89.8 %
CIS module                      ...        4.978 sec (=   0.083 min)   8.5 %
                             ****ORCA TERMINATED NORMALLY****
TOTAL RUN TIME: 0 days 0 hours 1 minutes 0 seconds 867 msec
