
                                 *****************
                                 * O   R   C   A *
                                 *****************

                                            #,                                       
                                            ###                                      
                                            ####                                     
                                            #####                                    
                                            ######                                   
                                           ########,                                 
                                     ,,################,,,,,                         
                               ,,#################################,,                 
                          ,,##########################################,,             
                       ,#########################################, ''#####,          
                    ,#############################################,,   '####,        
                  ,##################################################,,,,####,       
                ,###########''''           ''''###############################       
              ,#####''   ,,,,##########,,,,          '''####'''          '####       
            ,##' ,,,,###########################,,,                        '##       
           ' ,,###''''                  '''############,,,                           
         ,,##''                                '''############,,,,        ,,,,,,###''
      ,#''                                            '''#######################'''  
     '                                                          ''''####''''         
             ,#######,   #######,   ,#######,      ##                                
            ,#'     '#,  ##    ##  ,#'     '#,    #''#        ######   ,####,        
            ##       ##  ##   ,#'  ##            #'  '#       #        #'  '#        
            ##       ##  #######   ##           ,######,      #####,   #    #        
            '#,     ,#'  ##    ##  '#,     ,#' ,#      #,         ##   #,  ,#        
             '#######'   ##     ##  '#######'  #'      '#     #####' # '####'        



                  #######################################################
                  #                        -***-                        #
                  #          Department of theory and spectroscopy      #
                  #    Directorship and core code : Frank Neese         #
                  #        Max Planck Institute fuer Kohlenforschung    #
                  #                Kaiser Wilhelm Platz 1               #
                  #                 D-45470 Muelheim/Ruhr               #
                  #                      Germany                        #
                  #                                                     #
                  #                  All rights reserved                #
                  #                        -***-                        #
                  #######################################################


                         Program Version 5.0.3 -  RELEASE  -


 With contributions from (in alphabetic order):
   Daniel Aravena         : Magnetic Suceptibility
   Michael Atanasov       : Ab Initio Ligand Field Theory (pilot matlab implementation)
   Alexander A. Auer      : GIAO ZORA, VPT2 properties, NMR spectrum
   Ute Becker             : Parallelization
   Giovanni Bistoni       : ED, misc. LED, open-shell LED, HFLD
   Martin Brehm           : Molecular dynamics
   Dmytro Bykov           : SCF Hessian
   Vijay G. Chilkuri      : MRCI spin determinant printing, contributions to CSF-ICE
   Dipayan Datta          : RHF DLPNO-CCSD density
   Achintya Kumar Dutta   : EOM-CC, STEOM-CC
   Dmitry Ganyushin       : Spin-Orbit,Spin-Spin,Magnetic field MRCI
   Miquel Garcia          : C-PCM and meta-GGA Hessian, CC/C-PCM, Gaussian charge scheme
   Yang Guo               : DLPNO-NEVPT2, F12-NEVPT2, CIM, IAO-localization
   Andreas Hansen         : Spin unrestricted coupled pair/coupled cluster methods
   Benjamin Helmich-Paris : MC-RPA, TRAH-SCF, COSX integrals
   Lee Huntington         : MR-EOM, pCC
   Robert Izsak           : Overlap fitted RIJCOSX, COSX-SCS-MP3, EOM
   Marcus Kettner         : VPT2
   Christian Kollmar      : KDIIS, OOCD, Brueckner-CCSD(T), CCSD density, CASPT2, CASPT2-K
   Simone Kossmann        : Meta GGA functionals, TD-DFT gradient, OOMP2, MP2 Hessian
   Martin Krupicka        : Initial AUTO-CI
   Lucas Lang             : DCDCAS
   Marvin Lechner         : AUTO-CI (C++ implementation), FIC-MRCC
   Dagmar Lenk            : GEPOL surface, SMD
   Dimitrios Liakos       : Extrapolation schemes; Compound Job, initial MDCI parallelization
   Dimitrios Manganas     : Further ROCIS development; embedding schemes
   Dimitrios Pantazis     : SARC Basis sets
   Anastasios Papadopoulos: AUTO-CI, single reference methods and gradients
   Taras Petrenko         : DFT Hessian,TD-DFT gradient, ASA, ECA, R-Raman, ABS, FL, XAS/XES, NRVS
   Peter Pinski           : DLPNO-MP2, DLPNO-MP2 Gradient
   Christoph Reimann      : Effective Core Potentials
   Marius Retegan         : Local ZFS, SOC
   Christoph Riplinger    : Optimizer, TS searches, QM/MM, DLPNO-CCSD(T), (RO)-DLPNO pert. Triples
   Tobias Risthaus        : Range-separated hybrids, TD-DFT gradient, RPA, STAB
   Michael Roemelt        : Original ROCIS implementation
   Masaaki Saitow         : Open-shell DLPNO-CCSD energy and density
   Barbara Sandhoefer     : DKH picture change effects
   Avijit Sen             : IP-ROCIS
   Kantharuban Sivalingam : CASSCF convergence, NEVPT2, FIC-MRCI
   Bernardo de Souza      : ESD, SOC TD-DFT
   Georgi Stoychev        : AutoAux, RI-MP2 NMR, DLPNO-MP2 response
   Willem Van den Heuvel  : Paramagnetic NMR
   Boris Wezisla          : Elementary symmetry handling
   Frank Wennmohs         : Technical directorship


 We gratefully acknowledge several colleagues who have allowed us to
 interface, adapt or use parts of their codes:
   Stefan Grimme, W. Hujo, H. Kruse, P. Pracht,  : VdW corrections, initial TS optimization,
                  C. Bannwarth, S. Ehlert          DFT functionals, gCP, sTDA/sTD-DF
   Ed Valeev, F. Pavosevic, A. Kumar             : LibInt (2-el integral package), F12 methods
   Garnet Chan, S. Sharma, J. Yang, R. Olivares  : DMRG
   Ulf Ekstrom                                   : XCFun DFT Library
   Mihaly Kallay                                 : mrcc  (arbitrary order and MRCC methods)
   Jiri Pittner, Ondrej Demel                    : Mk-CCSD
   Frank Weinhold                                : gennbo (NPA and NBO analysis)
   Christopher J. Cramer and Donald G. Truhlar   : smd solvation model
   Lars Goerigk                                  : TD-DFT with DH, B97 family of functionals
   V. Asgeirsson, H. Jonsson                     : NEB implementation
   FAccTs GmbH                                   : IRC, NEB, NEB-TS, DLPNO-Multilevel, CI-OPT
                                                   MM, QMMM, 2- and 3-layer-ONIOM, Crystal-QMMM,
                                                   LR-CPCM, SF, NACMEs, symmetry and pop. for TD-DFT,
                                                   nearIR, NL-DFT gradient (VV10), updates on ESD,
                                                   ML-optimized integration grids
   S Lehtola, MJT Oliveira, MAL Marques          : LibXC Library
   Liviu Ungur et al                             : ANISO software


 Your calculation uses the libint2 library for the computation of 2-el integrals
 For citations please refer to: http://libint.valeyev.net

 Your ORCA version has been built with support for libXC version: 5.1.0
 For citations please refer to: https://tddft.org/programs/libxc/

 This ORCA versions uses:
   CBLAS   interface :  Fast vector & matrix operations
   LAPACKE interface :  Fast linear algebra routines
   SCALAPACK package :  Parallel linear algebra routines
   Shared memory     :  Shared parallel matrices
   BLAS/LAPACK       :  OpenBLAS 0.3.15  USE64BITINT DYNAMIC_ARCH NO_AFFINITY Haswell SINGLE_THREADED
        Core in use  :  Haswell
   Copyright (c) 2011-2014, The OpenBLAS Project


================================================================================

----- Orbital basis set information -----
Your calculation utilizes the basis: 6-31G
   H-He, Li-Ne : W. J. Hehre, R. Ditchfield and J.A. Pople, J. Chem. Phys. 56, 2257 (1972).
                 Note: He and Ne are unpublished basis sets taken from the Gaussian program.
                 Note: Li and B from J. D. Dill and J. A. Pople, J. Chem. Phys. 62, 2921 (1975).
   Na - Ar     : M. M. Francl, W. J. Pietro, W. J. Hehre, J. S. Binkley, M. S. Gordon, 
                 D. J. DeFrees and J. A. Pople, J. Chem. Phys. 77, 3654 (1982).
   K - Zn      : V. A. Rassolov, J. A. Pople, M. A. Ratner, and T. L. Windus, J. Chem. Phys. 109, 1223 (1998).

----- AuxJ basis set information -----
Your calculation utilizes the auxiliary basis: def2/J
   F. Weigend, Phys. Chem. Chem. Phys. 8, 1057 (2006).

================================================================================
                                        WARNINGS
                       Please study these warnings very carefully!
================================================================================

INFO   : Checking CIS options ...

INFO   : the flag for use of the SHARK integral package has been found!

================================================================================
                                       INPUT FILE
================================================================================
NAME = acrolien.321.com
|  1> ! B3LYP 6-31G
|  2> !TightSCF
|  3> %scf
|  4>  ConvForced true
|  5>  convergence tight
|  6>  MaxIter 500
|  7> end
|  8>  
|  9> %tddft 
| 10>  nroots 1
| 11> end
| 12> 
| 13> # 	29332
| 14> * xyz 0 1
| 15> 		C   -0.603108  -0.439705   0.089869
| 16> 		O   -0.575614  -1.619670  -0.054691
| 17> 		C    0.623442   0.421882  -0.052690
| 18> 		C    1.823281  -0.118080   0.033856
| 19> 		H   -1.603236   0.017384   0.143061
| 20> 		H    0.535013   1.393776  -0.233016
| 21> 		H    2.218395  -1.075644   0.224821
| 22> 		H    2.947341   0.257469  -0.137171
| 23> *
| 24> 
| 25>                          ****END OF INPUT****
================================================================================

                       ****************************
                       * Single Point Calculation *
                       ****************************

---------------------------------
CARTESIAN COORDINATES (ANGSTROEM)
---------------------------------
  C     -0.603108   -0.439705    0.089869
  O     -0.575614   -1.619670   -0.054691
  C      0.623442    0.421882   -0.052690
  C      1.823281   -0.118080    0.033856
  H     -1.603236    0.017384    0.143061
  H      0.535013    1.393776   -0.233016
  H      2.218395   -1.075644    0.224821
  H      2.947341    0.257469   -0.137171

----------------------------
CARTESIAN COORDINATES (A.U.)
----------------------------
  NO LB      ZA    FRAG     MASS         X           Y           Z
   0 C     6.0000    0    12.011   -1.139709   -0.830922    0.169828
   1 O     8.0000    0    15.999   -1.087753   -3.060733   -0.103351
   2 C     6.0000    0    12.011    1.178135    0.797241   -0.099570
   3 C     6.0000    0    12.011    3.445502   -0.223139    0.063979
   4 H     1.0000    0     1.008   -3.029677    0.032851    0.270346
   5 H     1.0000    0     1.008    1.011028    2.633855   -0.440336
   6 H     1.0000    0     1.008    4.192159   -2.032673    0.424850
   7 H     1.0000    0     1.008    5.569667    0.486546   -0.259216

--------------------------------
INTERNAL COORDINATES (ANGSTROEM)
--------------------------------
 C      0   0   0     0.000000000000     0.00000000     0.00000000
 O      1   0   0     1.189105089915     0.00000000     0.00000000
 C      1   2   0     1.505682612488   122.51222658     0.00000000
 C      3   1   2     1.318583633101   120.04720233   340.60715818
 H      1   2   3     1.100915872884   116.03225356   168.65464624
 H      3   1   2     0.992428889923   120.33147958   159.18068933
 H      4   3   1     1.053333526627   136.51019466   357.26708847
 H      4   3   1     1.197413115733   135.75757424   172.66664628

---------------------------
INTERNAL COORDINATES (A.U.)
---------------------------
 C      0   0   0     0.000000000000     0.00000000     0.00000000
 O      1   0   0     2.247082964391     0.00000000     0.00000000
 C      1   2   0     2.845327782210   122.51222658     0.00000000
 C      3   1   2     2.491761951231   120.04720233   340.60715818
 H      1   2   3     2.080429496239   116.03225356   168.65464624
 H      3   1   2     1.875418809345   120.33147958   159.18068933
 H      4   3   1     1.990511893003   136.51019466   357.26708847
 H      4   3   1     2.262782857901   135.75757424   172.66664628

---------------------
BASIS SET INFORMATION
---------------------
There are 3 groups of distinct atoms

 Group   1 Type C   : 10s4p contracted to 3s2p pattern {631/31}
 Group   2 Type O   : 10s4p contracted to 3s2p pattern {631/31}
 Group   3 Type H   : 4s contracted to 2s pattern {31}

Atom   0C    basis set group =>   1
Atom   1O    basis set group =>   2
Atom   2C    basis set group =>   1
Atom   3C    basis set group =>   1
Atom   4H    basis set group =>   3
Atom   5H    basis set group =>   3
Atom   6H    basis set group =>   3
Atom   7H    basis set group =>   3
---------------------------------
AUXILIARY/J BASIS SET INFORMATION
---------------------------------
There are 3 groups of distinct atoms

 Group   1 Type C   : 12s5p4d2f1g contracted to 6s4p3d1f1g pattern {711111/2111/211/2/1}
 Group   2 Type O   : 12s5p4d2f1g contracted to 6s4p3d1f1g pattern {711111/2111/211/2/1}
 Group   3 Type H   : 5s2p1d contracted to 3s1p1d pattern {311/2/1}

Atom   0C    basis set group =>   1
Atom   1O    basis set group =>   2
Atom   2C    basis set group =>   1
Atom   3C    basis set group =>   1
Atom   4H    basis set group =>   3
Atom   5H    basis set group =>   3
Atom   6H    basis set group =>   3
Atom   7H    basis set group =>   3
------------------------------------------------------------------------------
                           ORCA GTO INTEGRAL CALCULATION
                           -- RI-GTO INTEGRALS CHOSEN --
------------------------------------------------------------------------------
------------------------------------------------------------------------------
                   ___                                                        
                  /   \      - P O W E R E D   B Y -                         
                 /     \                                                     
                 |  |  |   _    _      __       _____    __    __             
                 |  |  |  | |  | |    /  \     |  _  \  |  |  /  |          
                  \  \/   | |  | |   /    \    | | | |  |  | /  /          
                 / \  \   | |__| |  /  /\  \   | |_| |  |  |/  /          
                |  |  |   |  __  | /  /__\  \  |    /   |      \           
                |  |  |   | |  | | |   __   |  |    \   |  |\   \          
                \     /   | |  | | |  |  |  |  | |\  \  |  | \   \       
                 \___/    |_|  |_| |__|  |__|  |_| \__\ |__|  \__/        
                                                                              
                      - O R C A' S   B I G   F R I E N D -                    
                                      &                                       
                       - I N T E G R A L  F E E D E R -                       
                                                                              
 v1 FN, 2020, v2 2021                                                         
------------------------------------------------------------------------------


Reading SHARK input file acrolien.321.SHARKINP.tmp ... ok
----------------------
SHARK INTEGRAL PACKAGE
----------------------

Number of atoms                             ...      8
Number of basis functions                   ...     44
Number of shells                            ...     28
Maximum angular momentum                    ...      1
Integral batch strategy                     ... SHARK/LIBINT Hybrid
RI-J (if used) integral strategy            ... SPLIT-RIJ (Revised 2003 algorithm where possible)
Printlevel                                  ...      1
Contraction scheme used                     ... SEGMENTED contraction
Coulomb Range Separation                    ... NOT USED
Exchange Range Separation                   ... NOT USED
Finite Nucleus Model                        ... NOT USED
Auxiliary Coulomb fitting basis             ... AVAILABLE
   # of basis functions in Aux-J            ...    240
   # of shells in Aux-J                     ...     80
   Maximum angular momentum in Aux-J        ...      4
Auxiliary J/K fitting basis                 ... NOT available
Auxiliary Correlation fitting basis         ... NOT available
Auxiliary 'external' fitting basis          ... NOT available
Integral threshold                          ...     2.500000e-11
Primitive cut-off                           ...     2.500000e-12
Primitive pair pre-selection threshold      ...     2.500000e-12

Calculating pre-screening integrals         ... done (  0.0 sec) Dimension = 28
Organizing shell pair data                  ... done (  0.1 sec)
Shell pair information
Total number of shell pairs                 ...       406
Shell pairs after pre-screening             ...       402
Total number of primitive shell pairs       ...      2724
Primitive shell pairs kept                  ...      2012
          la=0 lb=0:    206 shell pairs
          la=1 lb=0:    160 shell pairs
          la=1 lb=1:     36 shell pairs

Calculating one electron integrals          ... done (  0.0 sec)
Calculating RI/J V-Matrix + Cholesky decomp.... done (  0.2 sec)
Calculating Nuclear repulsion               ... done (  0.0 sec) ENN=    105.029350675390 Eh

SHARK setup successfully completed in   0.9 seconds

Maximum memory used throughout the entire GTOINT-calculation: 8.3 MB
-------------------------------------------------------------------------------
                                 ORCA SCF
-------------------------------------------------------------------------------

------------
SCF SETTINGS
------------
Hamiltonian:
 Density Functional     Method          .... DFT(GTOs)
 Exchange Functional    Exchange        .... B88
   X-Alpha parameter    XAlpha          ....  0.666667
   Becke's b parameter  XBeta           ....  0.004200
 Correlation Functional Correlation     .... LYP
 LDA part of GGA corr.  LDAOpt          .... VWN-5
 Gradients option       PostSCFGGA      .... off
 Hybrid DFT is turned on
   Fraction HF Exchange ScalHFX         ....  0.200000
   Scaling of DF-GGA-X  ScalDFX         ....  0.720000
   Scaling of DF-GGA-C  ScalDFC         ....  0.810000
   Scaling of DF-LDA-C  ScalLDAC        ....  1.000000
   Perturbative correction              ....  0.000000
   Density functional embedding theory  .... OFF
   NL short-range parameter             ....  4.800000
 RI-approximation to the Coulomb term is turned on
   Number of AuxJ basis functions       .... 240
   RIJ-COSX (HFX calculated with COS-X)).... on


General Settings:
 Integral files         IntName         .... acrolien.321
 Hartree-Fock type      HFTyp           .... RHF
 Total Charge           Charge          ....    0
 Multiplicity           Mult            ....    1
 Number of Electrons    NEL             ....   30
 Basis Dimension        Dim             ....   44
 Nuclear Repulsion      ENuc            ....    105.0293506754 Eh

Convergence Acceleration:
 DIIS                   CNVDIIS         .... on
   Start iteration      DIISMaxIt       ....    12
   Startup error        DIISStart       ....  0.200000
   # of expansion vecs  DIISMaxEq       ....     5
   Bias factor          DIISBfac        ....   1.050
   Max. coefficient     DIISMaxC        ....  10.000
 Trust-Rad. Augm. Hess. CNVTRAH         .... auto
   Auto Start mean grad. ratio tolernc. ....  1.125000
   Auto Start start iteration           ....    20
   Auto Start num. interpolation iter.  ....    10
   Max. Number of Micro iterations      ....    16
   Max. Number of Macro iterations      .... Maxiter - #DIIS iter
   Number of Davidson start vectors     ....     2
   Converg. threshold I  (grad. norm)   ....   1.000e-05
   Converg. threshold II (energy diff.) ....   1.000e-08
   Grad. Scal. Fac. for Micro threshold ....   0.100
   Minimum threshold for Micro iter.    ....   0.010
   NR start threshold (gradient norm)   ....   0.001
   Initial trust radius                 ....   0.400
   Minimum AH scaling param. (alpha)    ....   1.000
   Maximum AH scaling param. (alpha)    .... 1000.000
   Orbital update algorithm             .... Taylor
   White noise on init. David. guess    .... on
   Maximum white noise                  ....   0.010
   Quad. conv. algorithm                .... NR
 SOSCF                  CNVSOSCF        .... on
   Start iteration      SOSCFMaxIt      ....   150
   Startup grad/error   SOSCFStart      ....  0.003300
 Level Shifting         CNVShift        .... on
   Level shift para.    LevelShift      ....    0.2500
   Turn off err/grad.   ShiftErr        ....    0.0010
 Zerner damping         CNVZerner       .... off
 Static damping         CNVDamp         .... on
   Fraction old density DampFac         ....    0.7000
   Max. Damping (<1)    DampMax         ....    0.9800
   Min. Damping (>=0)   DampMin         ....    0.0000
   Turn off err/grad.   DampErr         ....    0.1000
 Fernandez-Rico         CNVRico         .... off

SCF Procedure:
 Maximum # iterations   MaxIter         ....   500
 SCF integral mode      SCFMode         .... Direct
   Integral package                     .... SHARK and LIBINT hybrid scheme
 Reset frequency        DirectResetFreq ....    20
 Integral Threshold     Thresh          ....  2.500e-11 Eh
 Primitive CutOff       TCut            ....  2.500e-12 Eh

Convergence Tolerance:
 Convergence Check Mode ConvCheckMode   .... Total+1el-Energy
 Convergence forced     ConvForced      .... 1
 Energy Change          TolE            ....  1.000e-08 Eh
 1-El. energy change                    ....  1.000e-05 Eh
 Orbital Gradient       TolG            ....  1.000e-05
 Orbital Rotation angle TolX            ....  1.000e-05
 DIIS Error             TolErr          ....  5.000e-07


Diagonalization of the overlap matrix:
Smallest eigenvalue                        ... 5.291e-03
Time for diagonalization                   ...    0.060 sec
Threshold for overlap eigenvalues          ... 1.000e-08
Number of eigenvalues below threshold      ... 0
Time for construction of square roots      ...    0.083 sec
Total time needed                          ...    0.143 sec

Time for model grid setup =    0.052 sec

------------------------------
INITIAL GUESS: MODEL POTENTIAL
------------------------------
Loading Hartree-Fock densities                     ... done
Calculating cut-offs                               ... done
Initializing the effective Hamiltonian             ... done
Setting up the integral package (SHARK)            ... done
Starting the Coulomb interaction                   ... done (   0.9 sec)
Reading the grid                                   ... done
Mapping shells                                     ... done
Starting the XC term evaluation                    ... done (   0.0 sec)
  promolecular density results
     # of electrons  =     29.999060607
     EX              =    -24.761559948
     EC              =     -0.996936513
     EX+EC           =    -25.758496461
Transforming the Hamiltonian                       ... done (   0.4 sec)
Diagonalizing the Hamiltonian                      ... done (   0.0 sec)
Back transforming the eigenvectors                 ... done (   0.0 sec)
Now organizing SCF variables                       ... done
                      ------------------
                      INITIAL GUESS DONE (   1.9 sec)
                      ------------------
-------------------
DFT GRID GENERATION
-------------------

General Integration Accuracy     IntAcc      ... 4.388
Radial Grid Type                 RadialGrid  ... OptM3 with GC (2021)
Angular Grid (max. ang.)         AngularGrid ... 4 (Lebedev-302)
Angular grid pruning method      GridPruning ... 4 (adaptive)
Weight generation scheme         WeightScheme... Becke
Basis function cutoff            BFCut       ... 1.0000e-11
Integration weight cutoff        WCut        ... 1.0000e-14
Angular grids for H and He will be reduced by one unit
Partially contracted basis set               ... off
Rotationally invariant grid construction     ... off

Total number of grid points                  ...    37394
Total number of batches                      ...      589
Average number of points per batch           ...       63
Average number of grid points per atom       ...     4674
Time for grid setup =    0.639 sec

--------------------
COSX GRID GENERATION
--------------------

GRIDX 1
-------
General Integration Accuracy     IntAcc      ... 3.816
Radial Grid Type                 RadialGrid  ... OptM3 with GC (2021)
Angular Grid (max. ang.)         AngularGrid ... 1 (Lebedev-50)
Angular grid pruning method      GridPruning ... 4 (adaptive)
Weight generation scheme         WeightScheme... Becke
Basis function cutoff            BFCut       ... 1.0000e-11
Integration weight cutoff        WCut        ... 1.0000e-14
Angular grids for H and He will be reduced by one unit
Partially contracted basis set               ... on
Rotationally invariant grid construction     ... off

Total number of grid points                  ...     4810
Total number of batches                      ...       80
Average number of points per batch           ...       60
Average number of grid points per atom       ...      601
UseSFitting                                  ... on

GRIDX 2
-------
General Integration Accuracy     IntAcc      ... 4.020
Radial Grid Type                 RadialGrid  ... OptM3 with GC (2021)
Angular Grid (max. ang.)         AngularGrid ... 2 (Lebedev-110)
Angular grid pruning method      GridPruning ... 4 (adaptive)
Weight generation scheme         WeightScheme... Becke
Basis function cutoff            BFCut       ... 1.0000e-11
Integration weight cutoff        WCut        ... 1.0000e-14
Angular grids for H and He will be reduced by one unit
Partially contracted basis set               ... on
Rotationally invariant grid construction     ... off

Total number of grid points                  ...    10565
Total number of batches                      ...      169
Average number of points per batch           ...       62
Average number of grid points per atom       ...     1321
UseSFitting                                  ... on

GRIDX 3
-------
General Integration Accuracy     IntAcc      ... 4.338
Radial Grid Type                 RadialGrid  ... OptM3 with GC (2021)
Angular Grid (max. ang.)         AngularGrid ... 3 (Lebedev-194)
Angular grid pruning method      GridPruning ... 4 (adaptive)
Weight generation scheme         WeightScheme... Becke
Basis function cutoff            BFCut       ... 1.0000e-11
Integration weight cutoff        WCut        ... 1.0000e-14
Angular grids for H and He will be reduced by one unit
Partially contracted basis set               ... on
Rotationally invariant grid construction     ... off

Total number of grid points                  ...    23303
Total number of batches                      ...      368
Average number of points per batch           ...       63
Average number of grid points per atom       ...     2913
UseSFitting                                  ... on

Time for X-Grid setup             =    1.627 sec

--------------
SCF ITERATIONS
--------------
ITER       Energy         Delta-E        Max-DP      RMS-DP      [F,P]     Damp
               ***  Starting incremental Fock matrix formation  ***
  0   -191.5629864411   0.000000000000 0.11648551  0.00831407  0.2604018 0.7000
  1   -191.6287633415  -0.065776900437 0.06411247  0.00508105  0.0993638 0.7000
                               ***Turning on DIIS***
  2   -191.6508147968  -0.022051455273 0.06257411  0.00649573  0.0339217 0.0000
  3   -191.6902629640  -0.039448167242 0.04887081  0.00374670  0.0505695 0.0000
  4   -191.6970457067  -0.006782742654 0.01006219  0.00112722  0.0210044 0.0000
                      *** Initiating the SOSCF procedure ***
                           *** Shutting down DIIS ***
                      *** Re-Reading the Fockian *** 
                      *** Removing any level shift *** 
ITER      Energy       Delta-E        Grad      Rot      Max-DP    RMS-DP
  5   -191.69800466  -0.0009589491  0.000677  0.000677  0.003911  0.000288
               *** Restarting incremental Fock matrix formation ***
  6   -191.69800871  -0.0000040499  0.000387  0.001117  0.001675  0.000149
  7   -191.69800870   0.0000000078  0.000485  0.000510  0.001021  0.000068
  8   -191.69801051  -0.0000018135  0.000144  0.000281  0.000397  0.000038
  9   -191.69801041   0.0000001013  0.000152  0.000140  0.000228  0.000017
 10   -191.69801067  -0.0000002621  0.000030  0.000120  0.000099  0.000008
 11   -191.69801066   0.0000000123  0.000049  0.000076  0.000066  0.000006
                  ***Gradient check signals convergence***
              ***Rediagonalizing the Fockian in SOSCF/NRSCF***

               *****************************************************
               *                     SUCCESS                       *
               *           SCF CONVERGED AFTER  12 CYCLES          *
               *****************************************************

Old exchange energy                            =     -5.026830099 Eh
New exchange energy                            =     -5.026835140 Eh
Exchange energy change after final integration =     -0.000005042 Eh
Total energy after final integration           =   -191.698015721 Eh
Final COS-X integration done in                =     0.811 sec

----------------
TOTAL SCF ENERGY
----------------

Total Energy       :         -191.69801572 Eh           -5216.36820 eV

Components:
Nuclear Repulsion  :          105.02935068 Eh            2857.99393 eV
Electronic Energy  :         -296.72736640 Eh           -8074.36213 eV
One Electron Energy:         -466.94371456 Eh          -12706.18444 eV
Two Electron Energy:          170.21634816 Eh            4631.82231 eV
Max COSX asymmetry :            0.00000228 Eh               0.00006 eV

Virial components:
Potential Energy   :         -382.72839391 Eh          -10414.56906 eV
Kinetic Energy     :          191.03037819 Eh            5198.20086 eV
Virial Ratio       :            2.00349493


DFT components:
N(Alpha)           :       14.999993648940 electrons
N(Beta)            :       14.999993648940 electrons
N(Total)           :       29.999987297880 electrons
E(X)               :      -20.008238221581 Eh       
E(C)               :       -1.184455631203 Eh       
E(XC)              :      -21.192693852784 Eh       
DFET-embed. en.    :        0.000000000000 Eh       

---------------
SCF CONVERGENCE
---------------

  Last Energy change         ...   -1.9174e-08  Tolerance :   1.0000e-08
  Last MAX-Density change    ...    2.2204e-15  Tolerance :   1.0000e-07
  Last RMS-Density change    ...    8.8064e-17  Tolerance :   5.0000e-09
  Last Orbital Gradient      ...    1.3453e-06  Tolerance :   1.0000e-05
  Last Orbital Rotation      ...    1.7963e-06  Tolerance :   1.0000e-05

             **** THE GBW FILE WAS UPDATED (acrolien.321.gbw) ****
             **** DENSITY acrolien.321.scfp WAS UPDATED ****
             **** ENERGY FILE WAS UPDATED (acrolien.321.en.tmp) ****
             **** THE GBW FILE WAS UPDATED (acrolien.321.gbw) ****
             **** DENSITY acrolien.321.scfp WAS UPDATED ****
----------------
ORBITAL ENERGIES
----------------

  NO   OCC          E(Eh)            E(eV) 
   0   2.0000     -19.146217      -520.9951 
   1   2.0000     -10.277601      -279.6677 
   2   2.0000     -10.210572      -277.8438 
   3   2.0000     -10.199191      -277.5341 
   4   2.0000      -1.083309       -29.4783 
   5   2.0000      -0.797794       -21.7091 
   6   2.0000      -0.655242       -17.8300 
   7   2.0000      -0.571702       -15.5568 
   8   2.0000      -0.516190       -14.0462 
   9   2.0000      -0.468306       -12.7433 
  10   2.0000      -0.424980       -11.5643 
  11   2.0000      -0.407952       -11.1009 
  12   2.0000      -0.349507        -9.5106 
  13   2.0000      -0.289484        -7.8773 
  14   2.0000      -0.252854        -6.8805 
  15   0.0000      -0.060380        -1.6430 
  16   0.0000       0.056928         1.5491 
  17   0.0000       0.088791         2.4161 
  18   0.0000       0.129354         3.5199 
  19   0.0000       0.164354         4.4723 
  20   0.0000       0.179018         4.8713 
  21   0.0000       0.267230         7.2717 
  22   0.0000       0.337194         9.1755 
  23   0.0000       0.344740         9.3809 
  24   0.0000       0.511636        13.9223 
  25   0.0000       0.521365        14.1871 
  26   0.0000       0.579542        15.7701 
  27   0.0000       0.594518        16.1777 
  28   0.0000       0.641854        17.4657 
  29   0.0000       0.646548        17.5935 
  30   0.0000       0.734496        19.9867 
  31   0.0000       0.776622        21.1329 
  32   0.0000       0.818288        22.2668 
  33   0.0000       0.840851        22.8807 
  34   0.0000       0.918944        25.0057 
  35   0.0000       0.964501        26.2454 
  36   0.0000       0.974134        26.5075 
  37   0.0000       0.992975        27.0202 
  38   0.0000       1.009184        27.4613 
  39   0.0000       1.049058        28.5463 
  40   0.0000       1.121985        30.5308 
  41   0.0000       1.138194        30.9718 
  42   0.0000       1.276829        34.7443 
  43   0.0000       1.741270        47.3824 

                    ********************************
                    * MULLIKEN POPULATION ANALYSIS *
                    ********************************

-----------------------
MULLIKEN ATOMIC CHARGES
-----------------------
   0 C :    0.171148
   1 O :   -0.343308
   2 C :   -0.123660
   3 C :   -0.258814
   4 H :    0.104890
   5 H :    0.133086
   6 H :    0.178629
   7 H :    0.138029
Sum of atomic charges:   -0.0000000

--------------------------------
MULLIKEN REDUCED ORBITAL CHARGES
--------------------------------
  0 C s       :     3.181186  s :     3.181186
      pz      :     0.803122  p :     2.647666
      px      :     1.036359
      py      :     0.808185
  1 O s       :     3.928222  s :     3.928222
      pz      :     1.273082  p :     4.415086
      px      :     1.808119
      py      :     1.333884
  2 C s       :     3.206908  s :     3.206908
      pz      :     1.018781  p :     2.916752
      px      :     0.917185
      py      :     0.980787
  3 C s       :     3.236966  s :     3.236966
      pz      :     0.919263  p :     3.021849
      px      :     1.035137
      py      :     1.067448
  4 H s       :     0.895110  s :     0.895110
  5 H s       :     0.866914  s :     0.866914
  6 H s       :     0.821371  s :     0.821371
  7 H s       :     0.861971  s :     0.861971


                     *******************************
                     * LOEWDIN POPULATION ANALYSIS *
                     *******************************

----------------------
LOEWDIN ATOMIC CHARGES
----------------------
   0 C :    0.116086
   1 O :   -0.218893
   2 C :   -0.171444
   3 C :   -0.169234
   4 H :    0.075888
   5 H :    0.124402
   6 H :    0.128297
   7 H :    0.114896

-------------------------------
LOEWDIN REDUCED ORBITAL CHARGES
-------------------------------
  0 C s       :     2.975364  s :     2.975364
      pz      :     0.807210  p :     2.908550
      px      :     1.080905
      py      :     1.020435
  1 O s       :     3.617609  s :     3.617609
      pz      :     1.277009  p :     4.601284
      px      :     1.856531
      py      :     1.467744
  2 C s       :     2.958595  s :     2.958595
      pz      :     1.017328  p :     3.212849
      px      :     1.088364
      py      :     1.107157
  3 C s       :     2.996296  s :     2.996296
      pz      :     0.926371  p :     3.172937
      px      :     1.104158
      py      :     1.142409
  4 H s       :     0.924112  s :     0.924112
  5 H s       :     0.875598  s :     0.875598
  6 H s       :     0.871703  s :     0.871703
  7 H s       :     0.885104  s :     0.885104


                      *****************************
                      * MAYER POPULATION ANALYSIS *
                      *****************************

  NA   - Mulliken gross atomic population
  ZA   - Total nuclear charge
  QA   - Mulliken gross atomic charge
  VA   - Mayer's total valence
  BVA  - Mayer's bonded valence
  FA   - Mayer's free valence

  ATOM       NA         ZA         QA         VA         BVA        FA
  0 C      5.8289     6.0000     0.1711     3.7681     3.7681    -0.0000
  1 O      8.3433     8.0000    -0.3433     2.0356     2.0356    -0.0000
  2 C      6.1237     6.0000    -0.1237     3.7943     3.7943    -0.0000
  3 C      6.2588     6.0000    -0.2588     3.8830     3.8830     0.0000
  4 H      0.8951     1.0000     0.1049     0.9278     0.9278    -0.0000
  5 H      0.8669     1.0000     0.1331     0.9388     0.9388    -0.0000
  6 H      0.8214     1.0000     0.1786     0.9144     0.9144    -0.0000
  7 H      0.8620     1.0000     0.1380     0.9371     0.9371    -0.0000

  Mayer bond orders larger than 0.100000
B(  0-C ,  1-O ) :   1.9049 B(  0-C ,  2-C ) :   0.9513 B(  0-C ,  4-H ) :   0.8835 
B(  2-C ,  3-C ) :   1.9251 B(  2-C ,  5-H ) :   0.9351 B(  3-C ,  6-H ) :   0.9235 
B(  3-C ,  7-H ) :   0.9404 

-------
TIMINGS
-------

Total SCF time: 0 days 0 hours 0 min 54 sec 

Total time                  ....      54.922 sec
Sum of individual times     ....      46.545 sec  ( 84.7%)

Fock matrix formation       ....      41.363 sec  ( 75.3%)
  Split-RI-J                ....       0.588 sec  (  1.4% of F)
  Chain of spheres X        ....       4.465 sec  ( 10.8% of F)
  XC integration            ....      17.799 sec  ( 43.0% of F)
    Basis function eval.    ....       0.960 sec  (  5.4% of XC)
    Density eval.           ....       0.337 sec  (  1.9% of XC)
    XC-Functional eval.     ....       0.625 sec  (  3.5% of XC)
    XC-Potential eval.      ....       0.237 sec  (  1.3% of XC)
Diagonalization             ....       0.003 sec  (  0.0%)
Density matrix formation    ....       0.000 sec  (  0.0%)
Population analysis         ....       1.014 sec  (  1.8%)
Initial guess               ....       1.844 sec  (  3.4%)
Orbital Transformation      ....       0.000 sec  (  0.0%)
Orbital Orthonormalization  ....       0.000 sec  (  0.0%)
DIIS solution               ....       0.001 sec  (  0.0%)
SOSCF solution              ....       0.002 sec  (  0.0%)
Grid generation             ....       2.318 sec  (  4.2%)

Maximum memory used throughout the entire SCF-calculation: 46.8 MB
------------------------------------------------------------------------------
                        ORCA TD-DFT/TDA CALCULATION
------------------------------------------------------------------------------

Input orbitals are from        ... acrolien.321.gbw
CI-vector output               ... acrolien.321.cis
Tamm-Dancoff approximation     ... operative
CIS-Integral strategy          ... AO-integrals
Integral handling              ... AO integral Direct
Max. core memory used          ... 512 MB
Reference state                ... RHF
Generation of triplets         ... off
Follow IRoot                   ... off
Number of operators            ... 1
Orbital ranges used for CIS calculation:
 Operator 0:  Orbitals   4... 14  to  15... 43
XAS localization array:
 Operator 0:  Orbitals  -1... -1

-------------------
XC-INTEGRATION GRID
-------------------

General Integration Accuracy     IntAcc      ... 3.467
Radial Grid Type                 RadialGrid  ... OptM3 with GC (2021)
Angular Grid (max. ang.)         AngularGrid ... 1 (Lebedev-50)
Angular grid pruning method      GridPruning ... 4 (adaptive)
Weight generation scheme         WeightScheme... Becke
Basis function cutoff            BFCut       ... 1.0000e-11
Integration weight cutoff        WCut        ... 1.0000e-14
Angular grids for H and He will be reduced by one unit
Partially contracted basis set               ... off
Rotationally invariant grid construction     ... off

Total number of grid points                  ...     5502
Total number of batches                      ...       90
Average number of points per batch           ...       61
Average number of grid points per atom       ...      688

---------------------
COSX-INTEGRATION GRID
---------------------

General Integration Accuracy     IntAcc      ... 3.067
Radial Grid Type                 RadialGrid  ... OptM3 with GC (2021)
Angular Grid (max. ang.)         AngularGrid ... 1 (Lebedev-50)
Angular grid pruning method      GridPruning ... 4 (adaptive)
Weight generation scheme         WeightScheme... Becke
Basis function cutoff            BFCut       ... 1.0000e-11
Integration weight cutoff        WCut        ... 1.0000e-14
Angular grids for H and He will be reduced by one unit
Partially contracted basis set               ... on
Rotationally invariant grid construction     ... off

Total number of grid points                  ...     2511
Total number of batches                      ...       46
Average number of points per batch           ...       54
Average number of grid points per atom       ...      314

---------------
TD-DFT XC SETUP
---------------

DFT calculation                         ... on
Name of the grid file                   ... acrolien.321.grid_cis.tmp
Exchange functional (TD-DFT)            ... B88
   X-Alpha parameter    XAlpha (TD-DFT) ...  0.666667
   Becke's b parameter  XBeta (TD-DFT)  ...  0.004200
Correlation functional (TD-DFT)         ... LYP
 LDA part of GGA corr.  LDAOpt (TD-DFT) ... VWN-5
Hybrid DFT                              ... on
   Exchange mixing (TD-DFT)             ...  0.200
   GGA exch. scaling (TD-DFT)           ...  0.720
   GGA corr. scaling (TD-DFT)           ...  0.810

Building densities             ... done
Calculating rho(r) on the grid ... done
Building xc-kernel on the grid ... done
                    *** TD-DFT CALCULATION INITIALIZED ***

------------------------
DAVIDSON-DIAGONALIZATION
------------------------

Dimension of the eigenvalue problem            ...    319
Number of roots to be determined               ...      1
Maximum size of the expansion space            ...     10
Maximum number of iterations                   ...    100
Convergence tolerance for the residual         ...    2.500e-07
Convergence tolerance for the energies         ...    2.500e-07
Orthogonality tolerance                        ...    1.000e-14
Level Shift                                    ...    0.000e+00
Constructing the preconditioner                ... o.k.
Building the initial guess                     ... o.k.
Number of trial vectors determined             ...     10


                       ****Iteration    0****

   Memory handling for direct AO based CIS:
   Memory per vector needed      ...     1 MB
   Memory needed                 ...     0 MB
   Memory available              ...   512 MB
   Number of vectors per batch   ...   512
   Number of batches             ...     1
   Time for densities:            0.000
   Time for RI-J (Direct):        0.044
   Time for K (COSX):             0.407
   Time for XC-Integration:       0.039
   Time for Sigma-Completion:     0.000
   Size of expansion space: 3
   Lowest Energy          :     0.135058953342
   Maximum Energy change  :     0.135058953342 (vector 0)
   Maximum residual norm  :     0.000805322123

                       ****Iteration    1****
   Time for densities:            0.000
   Time for RI-J (Direct):        0.035
   Time for K (COSX):             0.111
   Time for XC-Integration:       0.022
   Time for Sigma-Completion:     0.000
   Size of expansion space: 4
   Lowest Energy          :     0.132228290632
   Maximum Energy change  :     0.002830662709 (vector 0)
   Maximum residual norm  :     0.000129080625

                       ****Iteration    2****
   Time for densities:            0.000
   Time for RI-J (Direct):        0.034
   Time for K (COSX):             0.266
   Time for XC-Integration:       0.023
   Time for Sigma-Completion:     0.000
   Size of expansion space: 5
   Lowest Energy          :     0.132081529851
   Maximum Energy change  :     0.000146760781 (vector 0)
   Maximum residual norm  :     0.000020239287

                       ****Iteration    3****
   Time for densities:            0.000
   Time for RI-J (Direct):        0.034
   Time for K (COSX):             0.109
   Time for XC-Integration:       0.023
   Time for Sigma-Completion:     0.000
   Size of expansion space: 6
   Lowest Energy          :     0.132055545471
   Maximum Energy change  :     0.000025984380 (vector 0)
   Maximum residual norm  :     0.000001517063

                       ****Iteration    4****
   Time for densities:            0.000
   Time for RI-J (Direct):        0.034
   Time for K (COSX):             0.109
   Time for XC-Integration:       0.022
   Time for Sigma-Completion:     0.000
   Size of expansion space: 7
   Lowest Energy          :     0.132053862425
   Maximum Energy change  :     0.000001683046 (vector 0)
   Maximum residual norm  :     0.000000073542

      *** CONVERGENCE OF RESIDUAL NORM REACHED ***

Storing the converged CI vectors               ... acrolien.321.cis1

                 *** DAVIDSON DONE ***

Total time for solving the CIS problem:     1.377sec

------------------------------------
TD-DFT/TDA EXCITED STATES (SINGLETS)
------------------------------------

the weight of the individual excitations are printed if larger than 1.0e-02

STATE  1:  E=   0.132054 au      3.593 eV    28982.5 cm**-1 <S**2> =   0.000000
    14a ->  15a  :     0.977293 (c= -0.98858127)
    14a ->  16a  :     0.016909 (c=  0.13003447)


-----------------------------
TD-DFT/TDA-EXCITATION SPECTRA
-----------------------------

Center of mass = (  0.5752, -0.9083, -0.0008)
Calculating the Dipole integrals                  ... done
Transforming integrals                            ... done
Calculating the Linear Momentum integrals         ... done
Transforming integrals                            ... done
Calculating angular momentum integrals            ... done
Transforming integrals                            ... done

-----------------------------------------------------------------------------
         ABSORPTION SPECTRUM VIA TRANSITION ELECTRIC DIPOLE MOMENTS
-----------------------------------------------------------------------------
State   Energy    Wavelength  fosc         T2        TX        TY        TZ  
        (cm-1)      (nm)                 (au**2)    (au)      (au)      (au) 
-----------------------------------------------------------------------------
   1   28982.5    345.0   0.000023303   0.00026   0.01071  -0.01212   0.00179

-----------------------------------------------------------------------------
         ABSORPTION SPECTRUM VIA TRANSITION VELOCITY DIPOLE MOMENTS
-----------------------------------------------------------------------------
State   Energy    Wavelength   fosc        P2         PX        PY        PZ  
        (cm-1)      (nm)                 (au**2)     (au)      (au)      (au) 
-----------------------------------------------------------------------------
   1   28982.5    345.0   0.000122670   0.00002   0.00413   0.00029  -0.00268

-------------------------------------------------------------------
                             CD SPECTRUM
-------------------------------------------------------------------
State  Energy     Wavelength     R         MX        MY        MZ   
       (cm-1)       (nm)     (1e40*cgs)   (au)      (au)      (au)  
-------------------------------------------------------------------
   1   28982.5    345.0     -1.92180   0.04965   0.39289   0.08537

-------------------------------------------------------------------
         CD SPECTRUM VIA TRANSITION VELOCITY DIPOLE MOMENTS        
-------------------------------------------------------------------
State  Energy     Wavelength     R         MX        MY        MZ   
       (cm-1)       (nm)     (1e40*cgs)   (au)      (au)      (au)  
-------------------------------------------------------------------
   1   28982.5    345.0      0.32293   0.04965   0.39289   0.08537

Total run time:        3.580 sec

           *** ORCA-CIS/TD-DFT FINISHED WITHOUT ERROR ***

Maximum memory used throughout the entire CIS-calculation: 42.9 MB

-----------------------
CIS/TD-DFT TOTAL ENERGY
-----------------------

    E(SCF)  =   -191.698015721 Eh
    DE(CIS) =      0.132053862 Eh (Root  1)
    ----------------------------- ---------
    E(tot)  =   -191.565961858 Eh


-------------------------   --------------------
FINAL SINGLE POINT ENERGY      -191.565961858331
-------------------------   --------------------


                            ***************************************
                            *     ORCA property calculations      *
                            ***************************************

                                    ---------------------
                                    Active property flags
                                    ---------------------
   (+) Dipole Moment


------------------------------------------------------------------------------
                       ORCA ELECTRIC PROPERTIES CALCULATION
------------------------------------------------------------------------------

Dipole Moment Calculation                       ... on
Quadrupole Moment Calculation                   ... off
Polarizability Calculation                      ... off
GBWName                                         ... acrolien.321.gbw
Electron density                                ... acrolien.321.scfp
The origin for moment calculation is the CENTER OF MASS  = ( 0.575193, -0.908315 -0.000813)

-------------
DIPOLE MOMENT
-------------
                                X             Y             Z
Electronic contribution:     -2.28584      -1.42581       0.07025
Nuclear contribution   :      2.68893       2.34325      -0.00135
                        -----------------------------------------
Total Dipole Moment    :      0.40309       0.91745       0.06890
                        -----------------------------------------
Magnitude (a.u.)       :      1.00446
Magnitude (Debye)      :      2.55313



--------------------
Rotational spectrum 
--------------------
 
Rotational constants in cm-1:     0.769887     0.207391     0.164454 
Rotational constants in MHz : 23080.622708  6217.416174  4930.221156 

 Dipole components along the rotational axes: 
x,y,z [a.u.] :    -0.812688     0.586357     0.068271 
x,y,z [Debye]:    -2.065690     1.490402     0.173531 

 

Timings for individual modules:

Sum of individual times         ...       61.041 sec (=   1.017 min)
GTO integral calculation        ...        1.442 sec (=   0.024 min)   2.4 %
SCF iterations                  ...       56.012 sec (=   0.934 min)  91.8 %
CIS module                      ...        3.587 sec (=   0.060 min)   5.9 %
                             ****ORCA TERMINATED NORMALLY****
TOTAL RUN TIME: 0 days 0 hours 1 minutes 1 seconds 439 msec
