
                                 *****************
                                 * O   R   C   A *
                                 *****************

                                            #,                                       
                                            ###                                      
                                            ####                                     
                                            #####                                    
                                            ######                                   
                                           ########,                                 
                                     ,,################,,,,,                         
                               ,,#################################,,                 
                          ,,##########################################,,             
                       ,#########################################, ''#####,          
                    ,#############################################,,   '####,        
                  ,##################################################,,,,####,       
                ,###########''''           ''''###############################       
              ,#####''   ,,,,##########,,,,          '''####'''          '####       
            ,##' ,,,,###########################,,,                        '##       
           ' ,,###''''                  '''############,,,                           
         ,,##''                                '''############,,,,        ,,,,,,###''
      ,#''                                            '''#######################'''  
     '                                                          ''''####''''         
             ,#######,   #######,   ,#######,      ##                                
            ,#'     '#,  ##    ##  ,#'     '#,    #''#        ######   ,####,        
            ##       ##  ##   ,#'  ##            #'  '#       #        #'  '#        
            ##       ##  #######   ##           ,######,      #####,   #    #        
            '#,     ,#'  ##    ##  '#,     ,#' ,#      #,         ##   #,  ,#        
             '#######'   ##     ##  '#######'  #'      '#     #####' # '####'        



                  #######################################################
                  #                        -***-                        #
                  #          Department of theory and spectroscopy      #
                  #    Directorship and core code : Frank Neese         #
                  #        Max Planck Institute fuer Kohlenforschung    #
                  #                Kaiser Wilhelm Platz 1               #
                  #                 D-45470 Muelheim/Ruhr               #
                  #                      Germany                        #
                  #                                                     #
                  #                  All rights reserved                #
                  #                        -***-                        #
                  #######################################################


                         Program Version 5.0.3 -  RELEASE  -


 With contributions from (in alphabetic order):
   Daniel Aravena         : Magnetic Suceptibility
   Michael Atanasov       : Ab Initio Ligand Field Theory (pilot matlab implementation)
   Alexander A. Auer      : GIAO ZORA, VPT2 properties, NMR spectrum
   Ute Becker             : Parallelization
   Giovanni Bistoni       : ED, misc. LED, open-shell LED, HFLD
   Martin Brehm           : Molecular dynamics
   Dmytro Bykov           : SCF Hessian
   Vijay G. Chilkuri      : MRCI spin determinant printing, contributions to CSF-ICE
   Dipayan Datta          : RHF DLPNO-CCSD density
   Achintya Kumar Dutta   : EOM-CC, STEOM-CC
   Dmitry Ganyushin       : Spin-Orbit,Spin-Spin,Magnetic field MRCI
   Miquel Garcia          : C-PCM and meta-GGA Hessian, CC/C-PCM, Gaussian charge scheme
   Yang Guo               : DLPNO-NEVPT2, F12-NEVPT2, CIM, IAO-localization
   Andreas Hansen         : Spin unrestricted coupled pair/coupled cluster methods
   Benjamin Helmich-Paris : MC-RPA, TRAH-SCF, COSX integrals
   Lee Huntington         : MR-EOM, pCC
   Robert Izsak           : Overlap fitted RIJCOSX, COSX-SCS-MP3, EOM
   Marcus Kettner         : VPT2
   Christian Kollmar      : KDIIS, OOCD, Brueckner-CCSD(T), CCSD density, CASPT2, CASPT2-K
   Simone Kossmann        : Meta GGA functionals, TD-DFT gradient, OOMP2, MP2 Hessian
   Martin Krupicka        : Initial AUTO-CI
   Lucas Lang             : DCDCAS
   Marvin Lechner         : AUTO-CI (C++ implementation), FIC-MRCC
   Dagmar Lenk            : GEPOL surface, SMD
   Dimitrios Liakos       : Extrapolation schemes; Compound Job, initial MDCI parallelization
   Dimitrios Manganas     : Further ROCIS development; embedding schemes
   Dimitrios Pantazis     : SARC Basis sets
   Anastasios Papadopoulos: AUTO-CI, single reference methods and gradients
   Taras Petrenko         : DFT Hessian,TD-DFT gradient, ASA, ECA, R-Raman, ABS, FL, XAS/XES, NRVS
   Peter Pinski           : DLPNO-MP2, DLPNO-MP2 Gradient
   Christoph Reimann      : Effective Core Potentials
   Marius Retegan         : Local ZFS, SOC
   Christoph Riplinger    : Optimizer, TS searches, QM/MM, DLPNO-CCSD(T), (RO)-DLPNO pert. Triples
   Tobias Risthaus        : Range-separated hybrids, TD-DFT gradient, RPA, STAB
   Michael Roemelt        : Original ROCIS implementation
   Masaaki Saitow         : Open-shell DLPNO-CCSD energy and density
   Barbara Sandhoefer     : DKH picture change effects
   Avijit Sen             : IP-ROCIS
   Kantharuban Sivalingam : CASSCF convergence, NEVPT2, FIC-MRCI
   Bernardo de Souza      : ESD, SOC TD-DFT
   Georgi Stoychev        : AutoAux, RI-MP2 NMR, DLPNO-MP2 response
   Willem Van den Heuvel  : Paramagnetic NMR
   Boris Wezisla          : Elementary symmetry handling
   Frank Wennmohs         : Technical directorship


 We gratefully acknowledge several colleagues who have allowed us to
 interface, adapt or use parts of their codes:
   Stefan Grimme, W. Hujo, H. Kruse, P. Pracht,  : VdW corrections, initial TS optimization,
                  C. Bannwarth, S. Ehlert          DFT functionals, gCP, sTDA/sTD-DF
   Ed Valeev, F. Pavosevic, A. Kumar             : LibInt (2-el integral package), F12 methods
   Garnet Chan, S. Sharma, J. Yang, R. Olivares  : DMRG
   Ulf Ekstrom                                   : XCFun DFT Library
   Mihaly Kallay                                 : mrcc  (arbitrary order and MRCC methods)
   Jiri Pittner, Ondrej Demel                    : Mk-CCSD
   Frank Weinhold                                : gennbo (NPA and NBO analysis)
   Christopher J. Cramer and Donald G. Truhlar   : smd solvation model
   Lars Goerigk                                  : TD-DFT with DH, B97 family of functionals
   V. Asgeirsson, H. Jonsson                     : NEB implementation
   FAccTs GmbH                                   : IRC, NEB, NEB-TS, DLPNO-Multilevel, CI-OPT
                                                   MM, QMMM, 2- and 3-layer-ONIOM, Crystal-QMMM,
                                                   LR-CPCM, SF, NACMEs, symmetry and pop. for TD-DFT,
                                                   nearIR, NL-DFT gradient (VV10), updates on ESD,
                                                   ML-optimized integration grids
   S Lehtola, MJT Oliveira, MAL Marques          : LibXC Library
   Liviu Ungur et al                             : ANISO software


 Your calculation uses the libint2 library for the computation of 2-el integrals
 For citations please refer to: http://libint.valeyev.net

 Your ORCA version has been built with support for libXC version: 5.1.0
 For citations please refer to: https://tddft.org/programs/libxc/

 This ORCA versions uses:
   CBLAS   interface :  Fast vector & matrix operations
   LAPACKE interface :  Fast linear algebra routines
   SCALAPACK package :  Parallel linear algebra routines
   Shared memory     :  Shared parallel matrices
   BLAS/LAPACK       :  OpenBLAS 0.3.15  USE64BITINT DYNAMIC_ARCH NO_AFFINITY Haswell SINGLE_THREADED
        Core in use  :  Haswell
   Copyright (c) 2011-2014, The OpenBLAS Project


================================================================================

----- Orbital basis set information -----
Your calculation utilizes the basis: 6-31G
   H-He, Li-Ne : W. J. Hehre, R. Ditchfield and J.A. Pople, J. Chem. Phys. 56, 2257 (1972).
                 Note: He and Ne are unpublished basis sets taken from the Gaussian program.
                 Note: Li and B from J. D. Dill and J. A. Pople, J. Chem. Phys. 62, 2921 (1975).
   Na - Ar     : M. M. Francl, W. J. Pietro, W. J. Hehre, J. S. Binkley, M. S. Gordon, 
                 D. J. DeFrees and J. A. Pople, J. Chem. Phys. 77, 3654 (1982).
   K - Zn      : V. A. Rassolov, J. A. Pople, M. A. Ratner, and T. L. Windus, J. Chem. Phys. 109, 1223 (1998).

----- AuxJ basis set information -----
Your calculation utilizes the auxiliary basis: def2/J
   F. Weigend, Phys. Chem. Chem. Phys. 8, 1057 (2006).

================================================================================
                                        WARNINGS
                       Please study these warnings very carefully!
================================================================================

INFO   : Checking CIS options ...

INFO   : the flag for use of the SHARK integral package has been found!

================================================================================
                                       INPUT FILE
================================================================================
NAME = acrolien.1012.com
|  1> ! B3LYP 6-31G
|  2> !TightSCF
|  3> %scf
|  4>  ConvForced true
|  5>  convergence tight
|  6>  MaxIter 500
|  7> end
|  8>  
|  9> %tddft 
| 10>  nroots 1
| 11> end
| 12> 
| 13> # 	2011
| 14> * xyz 0 1
| 15> 		C   -1.231002  -0.322850  -0.110327
| 16> 		O   -1.668811  -0.967478  -0.984857
| 17> 		C    0.057101   0.470334  -0.301995
| 18> 		C    1.147805   0.057039   0.293834
| 19> 		H   -1.496270  -0.298640   1.073460
| 20> 		H   -0.091108   1.382658  -0.844439
| 21> 		H    1.161294  -0.976910   0.702159
| 22> 		H    2.080721   0.624964   0.185862
| 23> *
| 24> 
| 25>                          ****END OF INPUT****
================================================================================

                       ****************************
                       * Single Point Calculation *
                       ****************************

---------------------------------
CARTESIAN COORDINATES (ANGSTROEM)
---------------------------------
  C     -1.231002   -0.322850   -0.110327
  O     -1.668811   -0.967478   -0.984857
  C      0.057101    0.470334   -0.301995
  C      1.147805    0.057039    0.293834
  H     -1.496270   -0.298640    1.073460
  H     -0.091108    1.382658   -0.844439
  H      1.161294   -0.976910    0.702159
  H      2.080721    0.624964    0.185862

----------------------------
CARTESIAN COORDINATES (A.U.)
----------------------------
  NO LB      ZA    FRAG     MASS         X           Y           Z
   0 C     6.0000    0    12.011   -2.326257   -0.610098   -0.208488
   1 O     8.0000    0    15.999   -3.153596   -1.828268   -1.861110
   2 C     6.0000    0    12.011    0.107905    0.888802   -0.570688
   3 C     6.0000    0    12.011    2.169037    0.107788    0.555266
   4 H     1.0000    0     1.008   -2.827541   -0.564348    2.028545
   5 H     1.0000    0     1.008   -0.172169    2.612845   -1.595758
   6 H     1.0000    0     1.008    2.194528   -1.846092    1.326888
   7 H     1.0000    0     1.008    3.931993    1.181011    0.351228

--------------------------------
INTERNAL COORDINATES (ANGSTROEM)
--------------------------------
 C      0   0   0     0.000000000000     0.00000000     0.00000000
 O      1   0   0     1.171334580624     0.00000000     0.00000000
 C      1   2   0     1.524823536902   120.54203919     0.00000000
 C      3   1   2     1.309755767264   118.82573990   252.07461767
 H      1   2   3     1.213385716618   131.12205778   193.39708169
 H      3   1   2     1.071702608839   112.93089891    78.42993051
 H      4   3   1     1.111738185612   118.07713460    15.00574900
 H      4   3   1     1.097510374195   119.98833475   181.26491232

---------------------------
INTERNAL COORDINATES (A.U.)
---------------------------
 C      0   0   0     0.000000000000     0.00000000     0.00000000
 O      1   0   0     2.213501568570     0.00000000     0.00000000
 C      1   2   0     2.881498887301   120.54203919     0.00000000
 C      3   1   2     2.475079702453   118.82573990   252.07461767
 H      1   2   3     2.292966699220   131.12205778   193.39708169
 H      3   1   2     2.025224427715   112.93089891    78.42993051
 H      4   3   1     2.100880703428   118.07713460    15.00574900
 H      4   3   1     2.073994036365   119.98833475   181.26491232

---------------------
BASIS SET INFORMATION
---------------------
There are 3 groups of distinct atoms

 Group   1 Type C   : 10s4p contracted to 3s2p pattern {631/31}
 Group   2 Type O   : 10s4p contracted to 3s2p pattern {631/31}
 Group   3 Type H   : 4s contracted to 2s pattern {31}

Atom   0C    basis set group =>   1
Atom   1O    basis set group =>   2
Atom   2C    basis set group =>   1
Atom   3C    basis set group =>   1
Atom   4H    basis set group =>   3
Atom   5H    basis set group =>   3
Atom   6H    basis set group =>   3
Atom   7H    basis set group =>   3
---------------------------------
AUXILIARY/J BASIS SET INFORMATION
---------------------------------
There are 3 groups of distinct atoms

 Group   1 Type C   : 12s5p4d2f1g contracted to 6s4p3d1f1g pattern {711111/2111/211/2/1}
 Group   2 Type O   : 12s5p4d2f1g contracted to 6s4p3d1f1g pattern {711111/2111/211/2/1}
 Group   3 Type H   : 5s2p1d contracted to 3s1p1d pattern {311/2/1}

Atom   0C    basis set group =>   1
Atom   1O    basis set group =>   2
Atom   2C    basis set group =>   1
Atom   3C    basis set group =>   1
Atom   4H    basis set group =>   3
Atom   5H    basis set group =>   3
Atom   6H    basis set group =>   3
Atom   7H    basis set group =>   3
------------------------------------------------------------------------------
                           ORCA GTO INTEGRAL CALCULATION
                           -- RI-GTO INTEGRALS CHOSEN --
------------------------------------------------------------------------------
------------------------------------------------------------------------------
                   ___                                                        
                  /   \      - P O W E R E D   B Y -                         
                 /     \                                                     
                 |  |  |   _    _      __       _____    __    __             
                 |  |  |  | |  | |    /  \     |  _  \  |  |  /  |          
                  \  \/   | |  | |   /    \    | | | |  |  | /  /          
                 / \  \   | |__| |  /  /\  \   | |_| |  |  |/  /          
                |  |  |   |  __  | /  /__\  \  |    /   |      \           
                |  |  |   | |  | | |   __   |  |    \   |  |\   \          
                \     /   | |  | | |  |  |  |  | |\  \  |  | \   \       
                 \___/    |_|  |_| |__|  |__|  |_| \__\ |__|  \__/        
                                                                              
                      - O R C A' S   B I G   F R I E N D -                    
                                      &                                       
                       - I N T E G R A L  F E E D E R -                       
                                                                              
 v1 FN, 2020, v2 2021                                                         
------------------------------------------------------------------------------


Reading SHARK input file acrolien.1012.SHARKINP.tmp ... ok
----------------------
SHARK INTEGRAL PACKAGE
----------------------

Number of atoms                             ...      8
Number of basis functions                   ...     44
Number of shells                            ...     28
Maximum angular momentum                    ...      1
Integral batch strategy                     ... SHARK/LIBINT Hybrid
RI-J (if used) integral strategy            ... SPLIT-RIJ (Revised 2003 algorithm where possible)
Printlevel                                  ...      1
Contraction scheme used                     ... SEGMENTED contraction
Coulomb Range Separation                    ... NOT USED
Exchange Range Separation                   ... NOT USED
Finite Nucleus Model                        ... NOT USED
Auxiliary Coulomb fitting basis             ... AVAILABLE
   # of basis functions in Aux-J            ...    240
   # of shells in Aux-J                     ...     80
   Maximum angular momentum in Aux-J        ...      4
Auxiliary J/K fitting basis                 ... NOT available
Auxiliary Correlation fitting basis         ... NOT available
Auxiliary 'external' fitting basis          ... NOT available
Integral threshold                          ...     2.500000e-11
Primitive cut-off                           ...     2.500000e-12
Primitive pair pre-selection threshold      ...     2.500000e-12

Calculating pre-screening integrals         ... done (  0.0 sec) Dimension = 28
Organizing shell pair data                  ... done (  0.1 sec)
Shell pair information
Total number of shell pairs                 ...       406
Shell pairs after pre-screening             ...       400
Total number of primitive shell pairs       ...      2724
Primitive shell pairs kept                  ...      2009
          la=0 lb=0:    205 shell pairs
          la=1 lb=0:    159 shell pairs
          la=1 lb=1:     36 shell pairs

Calculating one electron integrals          ... done (  0.0 sec)
Calculating RI/J V-Matrix + Cholesky decomp.... done (  0.1 sec)
Calculating Nuclear repulsion               ... done (  0.0 sec) ENN=    104.061671615826 Eh

SHARK setup successfully completed in   1.1 seconds

Maximum memory used throughout the entire GTOINT-calculation: 8.3 MB
-------------------------------------------------------------------------------
                                 ORCA SCF
-------------------------------------------------------------------------------

------------
SCF SETTINGS
------------
Hamiltonian:
 Density Functional     Method          .... DFT(GTOs)
 Exchange Functional    Exchange        .... B88
   X-Alpha parameter    XAlpha          ....  0.666667
   Becke's b parameter  XBeta           ....  0.004200
 Correlation Functional Correlation     .... LYP
 LDA part of GGA corr.  LDAOpt          .... VWN-5
 Gradients option       PostSCFGGA      .... off
 Hybrid DFT is turned on
   Fraction HF Exchange ScalHFX         ....  0.200000
   Scaling of DF-GGA-X  ScalDFX         ....  0.720000
   Scaling of DF-GGA-C  ScalDFC         ....  0.810000
   Scaling of DF-LDA-C  ScalLDAC        ....  1.000000
   Perturbative correction              ....  0.000000
   Density functional embedding theory  .... OFF
   NL short-range parameter             ....  4.800000
 RI-approximation to the Coulomb term is turned on
   Number of AuxJ basis functions       .... 240
   RIJ-COSX (HFX calculated with COS-X)).... on


General Settings:
 Integral files         IntName         .... acrolien.1012
 Hartree-Fock type      HFTyp           .... RHF
 Total Charge           Charge          ....    0
 Multiplicity           Mult            ....    1
 Number of Electrons    NEL             ....   30
 Basis Dimension        Dim             ....   44
 Nuclear Repulsion      ENuc            ....    104.0616716158 Eh

Convergence Acceleration:
 DIIS                   CNVDIIS         .... on
   Start iteration      DIISMaxIt       ....    12
   Startup error        DIISStart       ....  0.200000
   # of expansion vecs  DIISMaxEq       ....     5
   Bias factor          DIISBfac        ....   1.050
   Max. coefficient     DIISMaxC        ....  10.000
 Trust-Rad. Augm. Hess. CNVTRAH         .... auto
   Auto Start mean grad. ratio tolernc. ....  1.125000
   Auto Start start iteration           ....    20
   Auto Start num. interpolation iter.  ....    10
   Max. Number of Micro iterations      ....    16
   Max. Number of Macro iterations      .... Maxiter - #DIIS iter
   Number of Davidson start vectors     ....     2
   Converg. threshold I  (grad. norm)   ....   1.000e-05
   Converg. threshold II (energy diff.) ....   1.000e-08
   Grad. Scal. Fac. for Micro threshold ....   0.100
   Minimum threshold for Micro iter.    ....   0.010
   NR start threshold (gradient norm)   ....   0.001
   Initial trust radius                 ....   0.400
   Minimum AH scaling param. (alpha)    ....   1.000
   Maximum AH scaling param. (alpha)    .... 1000.000
   Orbital update algorithm             .... Taylor
   White noise on init. David. guess    .... on
   Maximum white noise                  ....   0.010
   Quad. conv. algorithm                .... NR
 SOSCF                  CNVSOSCF        .... on
   Start iteration      SOSCFMaxIt      ....   150
   Startup grad/error   SOSCFStart      ....  0.003300
 Level Shifting         CNVShift        .... on
   Level shift para.    LevelShift      ....    0.2500
   Turn off err/grad.   ShiftErr        ....    0.0010
 Zerner damping         CNVZerner       .... off
 Static damping         CNVDamp         .... on
   Fraction old density DampFac         ....    0.7000
   Max. Damping (<1)    DampMax         ....    0.9800
   Min. Damping (>=0)   DampMin         ....    0.0000
   Turn off err/grad.   DampErr         ....    0.1000
 Fernandez-Rico         CNVRico         .... off

SCF Procedure:
 Maximum # iterations   MaxIter         ....   500
 SCF integral mode      SCFMode         .... Direct
   Integral package                     .... SHARK and LIBINT hybrid scheme
 Reset frequency        DirectResetFreq ....    20
 Integral Threshold     Thresh          ....  2.500e-11 Eh
 Primitive CutOff       TCut            ....  2.500e-12 Eh

Convergence Tolerance:
 Convergence Check Mode ConvCheckMode   .... Total+1el-Energy
 Convergence forced     ConvForced      .... 1
 Energy Change          TolE            ....  1.000e-08 Eh
 1-El. energy change                    ....  1.000e-05 Eh
 Orbital Gradient       TolG            ....  1.000e-05
 Orbital Rotation angle TolX            ....  1.000e-05
 DIIS Error             TolErr          ....  5.000e-07


Diagonalization of the overlap matrix:
Smallest eigenvalue                        ... 6.498e-03
Time for diagonalization                   ...    0.060 sec
Threshold for overlap eigenvalues          ... 1.000e-08
Number of eigenvalues below threshold      ... 0
Time for construction of square roots      ...    0.063 sec
Total time needed                          ...    0.122 sec

Time for model grid setup =    0.101 sec

------------------------------
INITIAL GUESS: MODEL POTENTIAL
------------------------------
Loading Hartree-Fock densities                     ... done
Calculating cut-offs                               ... done
Initializing the effective Hamiltonian             ... done
Setting up the integral package (SHARK)            ... done
Starting the Coulomb interaction                   ... done (   0.0 sec)
Reading the grid                                   ... done
Mapping shells                                     ... done
Starting the XC term evaluation                    ... done (   0.0 sec)
  promolecular density results
     # of electrons  =     29.998141597
     EX              =    -24.744090226
     EC              =     -0.995567949
     EX+EC           =    -25.739658175
Transforming the Hamiltonian                       ... done (   0.0 sec)
Diagonalizing the Hamiltonian                      ... done (   0.0 sec)
Back transforming the eigenvectors                 ... done (   0.0 sec)
Now organizing SCF variables                       ... done
                      ------------------
                      INITIAL GUESS DONE (   0.3 sec)
                      ------------------
-------------------
DFT GRID GENERATION
-------------------

General Integration Accuracy     IntAcc      ... 4.388
Radial Grid Type                 RadialGrid  ... OptM3 with GC (2021)
Angular Grid (max. ang.)         AngularGrid ... 4 (Lebedev-302)
Angular grid pruning method      GridPruning ... 4 (adaptive)
Weight generation scheme         WeightScheme... Becke
Basis function cutoff            BFCut       ... 1.0000e-11
Integration weight cutoff        WCut        ... 1.0000e-14
Angular grids for H and He will be reduced by one unit
Partially contracted basis set               ... off
Rotationally invariant grid construction     ... off

Total number of grid points                  ...    37420
Total number of batches                      ...      591
Average number of points per batch           ...       63
Average number of grid points per atom       ...     4678
Time for grid setup =    0.375 sec

--------------------
COSX GRID GENERATION
--------------------

GRIDX 1
-------
General Integration Accuracy     IntAcc      ... 3.816
Radial Grid Type                 RadialGrid  ... OptM3 with GC (2021)
Angular Grid (max. ang.)         AngularGrid ... 1 (Lebedev-50)
Angular grid pruning method      GridPruning ... 4 (adaptive)
Weight generation scheme         WeightScheme... Becke
Basis function cutoff            BFCut       ... 1.0000e-11
Integration weight cutoff        WCut        ... 1.0000e-14
Angular grids for H and He will be reduced by one unit
Partially contracted basis set               ... on
Rotationally invariant grid construction     ... off

Total number of grid points                  ...     4807
Total number of batches                      ...       79
Average number of points per batch           ...       60
Average number of grid points per atom       ...      601
UseSFitting                                  ... on

GRIDX 2
-------
General Integration Accuracy     IntAcc      ... 4.020
Radial Grid Type                 RadialGrid  ... OptM3 with GC (2021)
Angular Grid (max. ang.)         AngularGrid ... 2 (Lebedev-110)
Angular grid pruning method      GridPruning ... 4 (adaptive)
Weight generation scheme         WeightScheme... Becke
Basis function cutoff            BFCut       ... 1.0000e-11
Integration weight cutoff        WCut        ... 1.0000e-14
Angular grids for H and He will be reduced by one unit
Partially contracted basis set               ... on
Rotationally invariant grid construction     ... off

Total number of grid points                  ...    10576
Total number of batches                      ...      169
Average number of points per batch           ...       62
Average number of grid points per atom       ...     1322
UseSFitting                                  ... on

GRIDX 3
-------
General Integration Accuracy     IntAcc      ... 4.338
Radial Grid Type                 RadialGrid  ... OptM3 with GC (2021)
Angular Grid (max. ang.)         AngularGrid ... 3 (Lebedev-194)
Angular grid pruning method      GridPruning ... 4 (adaptive)
Weight generation scheme         WeightScheme... Becke
Basis function cutoff            BFCut       ... 1.0000e-11
Integration weight cutoff        WCut        ... 1.0000e-14
Angular grids for H and He will be reduced by one unit
Partially contracted basis set               ... on
Rotationally invariant grid construction     ... off

Total number of grid points                  ...    23304
Total number of batches                      ...      368
Average number of points per batch           ...       63
Average number of grid points per atom       ...     2913
UseSFitting                                  ... on

Time for X-Grid setup             =    2.493 sec

--------------
SCF ITERATIONS
--------------
ITER       Energy         Delta-E        Max-DP      RMS-DP      [F,P]     Damp
               ***  Starting incremental Fock matrix formation  ***
  0   -191.5685786896   0.000000000000 0.08844951  0.00695229  0.2420003 0.7000
  1   -191.6376760142  -0.069097324618 0.04843493  0.00431932  0.0854773 0.7000
                               ***Turning on DIIS***
  2   -191.6602873315  -0.022611317329 0.06598421  0.00624382  0.0335514 0.0000
  3   -191.7014592203  -0.041171888781 0.03532332  0.00305719  0.0395066 0.0000
  4   -191.7083518531  -0.006892632766 0.01085131  0.00116790  0.0160057 0.0000
                      *** Initiating the SOSCF procedure ***
                           *** Shutting down DIIS ***
                      *** Re-Reading the Fockian *** 
                      *** Removing any level shift *** 
ITER      Energy       Delta-E        Grad      Rot      Max-DP    RMS-DP
  5   -191.70942757  -0.0010757213  0.000836  0.000836  0.004381  0.000335
               *** Restarting incremental Fock matrix formation ***
  6   -191.70942121   0.0000063629  0.000350  0.000956  0.001833  0.000167
  7   -191.70942156  -0.0000003523  0.000485  0.000467  0.001102  0.000072
  8   -191.70942352  -0.0000019547  0.000166  0.000274  0.000581  0.000052
  9   -191.70942354  -0.0000000189  0.000117  0.000070  0.000213  0.000021
 10   -191.70942386  -0.0000003223  0.000015  0.000048  0.000102  0.000006
 11   -191.70942386   0.0000000019  0.000027  0.000034  0.000035  0.000002
                 **** Energy Check signals convergence ****
              ***Rediagonalizing the Fockian in SOSCF/NRSCF***

               *****************************************************
               *                     SUCCESS                       *
               *           SCF CONVERGED AFTER  12 CYCLES          *
               *****************************************************

Old exchange energy                            =     -5.018759561 Eh
New exchange energy                            =     -5.018734603 Eh
Exchange energy change after final integration =      0.000024958 Eh
Total energy after final integration           =   -191.709398904 Eh
Final COS-X integration done in                =     0.800 sec

----------------
TOTAL SCF ENERGY
----------------

Total Energy       :         -191.70939890 Eh           -5216.67795 eV

Components:
Nuclear Repulsion  :          104.06167162 Eh            2831.66204 eV
Electronic Energy  :         -295.77107052 Eh           -8048.34000 eV
One Electron Energy:         -464.94933376 Eh          -12651.91458 eV
Two Electron Energy:          169.17826324 Eh            4603.57458 eV
Max COSX asymmetry :            0.00000058 Eh               0.00002 eV

Virial components:
Potential Energy   :         -382.62220229 Eh          -10411.67944 eV
Kinetic Energy     :          190.91280339 Eh            5195.00149 eV
Virial Ratio       :            2.00417256


DFT components:
N(Alpha)           :       15.000000032365 electrons
N(Beta)            :       15.000000032365 electrons
N(Total)           :       30.000000064729 electrons
E(X)               :      -19.978522480696 Eh       
E(C)               :       -1.182643622721 Eh       
E(XC)              :      -21.161166103418 Eh       
DFET-embed. en.    :        0.000000000000 Eh       

---------------
SCF CONVERGENCE
---------------

  Last Energy change         ...   -4.2520e-09  Tolerance :   1.0000e-08
  Last MAX-Density change    ...    2.6645e-15  Tolerance :   1.0000e-07
  Last RMS-Density change    ...    1.0391e-16  Tolerance :   5.0000e-09
  Last Orbital Gradient      ...    2.6658e-06  Tolerance :   1.0000e-05
  Last Orbital Rotation      ...    1.0146e-05  Tolerance :   1.0000e-05

             **** THE GBW FILE WAS UPDATED (acrolien.1012.gbw) ****
             **** DENSITY acrolien.1012.scfp WAS UPDATED ****
             **** ENERGY FILE WAS UPDATED (acrolien.1012.en.tmp) ****
             **** THE GBW FILE WAS UPDATED (acrolien.1012.gbw) ****
             **** DENSITY acrolien.1012.scfp WAS UPDATED ****
----------------
ORBITAL ENERGIES
----------------

  NO   OCC          E(Eh)            E(eV) 
   0   2.0000     -19.167582      -521.5764 
   1   2.0000     -10.294138      -280.1177 
   2   2.0000     -10.197666      -277.4926 
   3   2.0000     -10.196294      -277.4553 
   4   2.0000      -1.108628       -30.1673 
   5   2.0000      -0.800565       -21.7845 
   6   2.0000      -0.638525       -17.3751 
   7   2.0000      -0.557311       -15.1652 
   8   2.0000      -0.490411       -13.3448 
   9   2.0000      -0.468744       -12.7552 
  10   2.0000      -0.445206       -12.1147 
  11   2.0000      -0.405471       -11.0334 
  12   2.0000      -0.391007       -10.6399 
  13   2.0000      -0.286088        -7.7848 
  14   2.0000      -0.255316        -6.9475 
  15   0.0000      -0.039496        -1.0747 
  16   0.0000       0.012289         0.3344 
  17   0.0000       0.104118         2.8332 
  18   0.0000       0.124659         3.3921 
  19   0.0000       0.127089         3.4583 
  20   0.0000       0.186253         5.0682 
  21   0.0000       0.258014         7.0209 
  22   0.0000       0.307550         8.3689 
  23   0.0000       0.352034         9.5793 
  24   0.0000       0.516550        14.0560 
  25   0.0000       0.540965        14.7204 
  26   0.0000       0.554856        15.0984 
  27   0.0000       0.615383        16.7454 
  28   0.0000       0.637168        17.3382 
  29   0.0000       0.685170        18.6444 
  30   0.0000       0.717860        19.5340 
  31   0.0000       0.743234        20.2244 
  32   0.0000       0.796562        21.6755 
  33   0.0000       0.827370        22.5139 
  34   0.0000       0.840224        22.8637 
  35   0.0000       0.916300        24.9338 
  36   0.0000       0.932695        25.3799 
  37   0.0000       0.955056        25.9884 
  38   0.0000       0.980965        26.6934 
  39   0.0000       1.014921        27.6174 
  40   0.0000       1.101498        29.9733 
  41   0.0000       1.159441        31.5500 
  42   0.0000       1.274921        34.6924 
  43   0.0000       1.744072        47.4586 

                    ********************************
                    * MULLIKEN POPULATION ANALYSIS *
                    ********************************

-----------------------
MULLIKEN ATOMIC CHARGES
-----------------------
   0 C :    0.170496
   1 O :   -0.321015
   2 C :   -0.115959
   3 C :   -0.281902
   4 H :    0.099436
   5 H :    0.161646
   6 H :    0.142812
   7 H :    0.144486
Sum of atomic charges:    0.0000000

--------------------------------
MULLIKEN REDUCED ORBITAL CHARGES
--------------------------------
  0 C s       :     3.210604  s :     3.210604
      pz      :     0.935442  p :     2.618901
      px      :     0.890007
      py      :     0.793452
  1 O s       :     3.931304  s :     3.931304
      pz      :     1.491192  p :     4.389710
      px      :     1.538284
      py      :     1.360234
  2 C s       :     3.195966  s :     3.195966
      pz      :     0.984713  p :     2.919994
      px      :     0.937312
      py      :     0.997969
  3 C s       :     3.275313  s :     3.275313
      pz      :     0.997096  p :     3.006589
      px      :     0.996045
      py      :     1.013448
  4 H s       :     0.900564  s :     0.900564
  5 H s       :     0.838354  s :     0.838354
  6 H s       :     0.857188  s :     0.857188
  7 H s       :     0.855514  s :     0.855514


                     *******************************
                     * LOEWDIN POPULATION ANALYSIS *
                     *******************************

----------------------
LOEWDIN ATOMIC CHARGES
----------------------
   0 C :    0.117171
   1 O :   -0.177663
   2 C :   -0.171215
   3 C :   -0.210442
   4 H :    0.065573
   5 H :    0.129858
   6 H :    0.122165
   7 H :    0.124553

-------------------------------
LOEWDIN REDUCED ORBITAL CHARGES
-------------------------------
  0 C s       :     2.998290  s :     2.998290
      pz      :     1.067973  p :     2.884539
      px      :     0.942644
      py      :     0.873922
  1 O s       :     3.612115  s :     3.612115
      pz      :     1.590059  p :     4.565549
      px      :     1.570648
      py      :     1.404842
  2 C s       :     2.979100  s :     2.979100
      pz      :     1.026252  p :     3.192115
      px      :     1.092236
      py      :     1.073627
  3 C s       :     2.998771  s :     2.998771
      pz      :     1.031651  p :     3.211670
      px      :     1.099448
      py      :     1.080570
  4 H s       :     0.934427  s :     0.934427
  5 H s       :     0.870142  s :     0.870142
  6 H s       :     0.877835  s :     0.877835
  7 H s       :     0.875447  s :     0.875447


                      *****************************
                      * MAYER POPULATION ANALYSIS *
                      *****************************

  NA   - Mulliken gross atomic population
  ZA   - Total nuclear charge
  QA   - Mulliken gross atomic charge
  VA   - Mayer's total valence
  BVA  - Mayer's bonded valence
  FA   - Mayer's free valence

  ATOM       NA         ZA         QA         VA         BVA        FA
  0 C      5.8295     6.0000     0.1705     3.6976     3.6976     0.0000
  1 O      8.3210     8.0000    -0.3210     2.0483     2.0483     0.0000
  2 C      6.1160     6.0000    -0.1160     3.7556     3.7556    -0.0000
  3 C      6.2819     6.0000    -0.2819     3.8774     3.8774     0.0000
  4 H      0.9006     1.0000     0.0994     0.9371     0.9371     0.0000
  5 H      0.8384     1.0000     0.1616     0.9371     0.9371    -0.0000
  6 H      0.8572     1.0000     0.1428     0.9453     0.9453    -0.0000
  7 H      0.8555     1.0000     0.1445     0.9469     0.9469     0.0000

  Mayer bond orders larger than 0.100000
B(  0-C ,  1-O ) :   1.9220 B(  0-C ,  2-C ) :   0.9084 B(  0-C ,  4-H ) :   0.8370 
B(  2-C ,  3-C ) :   1.9473 B(  2-C ,  5-H ) :   0.9269 B(  3-C ,  6-H ) :   0.9461 
B(  3-C ,  7-H ) :   0.9458 

-------
TIMINGS
-------

Total SCF time: 0 days 0 hours 0 min 45 sec 

Total time                  ....      45.189 sec
Sum of individual times     ....      35.916 sec  ( 79.5%)

Fock matrix formation       ....      31.239 sec  ( 69.1%)
  Split-RI-J                ....       0.581 sec  (  1.9% of F)
  Chain of spheres X        ....       4.467 sec  ( 14.3% of F)
  XC integration            ....       9.033 sec  ( 28.9% of F)
    Basis function eval.    ....       0.953 sec  ( 10.5% of XC)
    Density eval.           ....       0.422 sec  (  4.7% of XC)
    XC-Functional eval.     ....       0.526 sec  (  5.8% of XC)
    XC-Potential eval.      ....       0.231 sec  (  2.6% of XC)
Diagonalization             ....       0.004 sec  (  0.0%)
Density matrix formation    ....       0.000 sec  (  0.0%)
Population analysis         ....       1.069 sec  (  2.4%)
Initial guess               ....       0.214 sec  (  0.5%)
Orbital Transformation      ....       0.000 sec  (  0.0%)
Orbital Orthonormalization  ....       0.000 sec  (  0.0%)
DIIS solution               ....       0.001 sec  (  0.0%)
SOSCF solution              ....       0.419 sec  (  0.9%)
Grid generation             ....       2.969 sec  (  6.6%)

Maximum memory used throughout the entire SCF-calculation: 46.7 MB
------------------------------------------------------------------------------
                        ORCA TD-DFT/TDA CALCULATION
------------------------------------------------------------------------------

Input orbitals are from        ... acrolien.1012.gbw
CI-vector output               ... acrolien.1012.cis
Tamm-Dancoff approximation     ... operative
CIS-Integral strategy          ... AO-integrals
Integral handling              ... AO integral Direct
Max. core memory used          ... 512 MB
Reference state                ... RHF
Generation of triplets         ... off
Follow IRoot                   ... off
Number of operators            ... 1
Orbital ranges used for CIS calculation:
 Operator 0:  Orbitals   4... 14  to  15... 43
XAS localization array:
 Operator 0:  Orbitals  -1... -1

-------------------
XC-INTEGRATION GRID
-------------------

General Integration Accuracy     IntAcc      ... 3.467
Radial Grid Type                 RadialGrid  ... OptM3 with GC (2021)
Angular Grid (max. ang.)         AngularGrid ... 1 (Lebedev-50)
Angular grid pruning method      GridPruning ... 4 (adaptive)
Weight generation scheme         WeightScheme... Becke
Basis function cutoff            BFCut       ... 1.0000e-11
Integration weight cutoff        WCut        ... 1.0000e-14
Angular grids for H and He will be reduced by one unit
Partially contracted basis set               ... off
Rotationally invariant grid construction     ... off

Total number of grid points                  ...     5505
Total number of batches                      ...       91
Average number of points per batch           ...       60
Average number of grid points per atom       ...      688

---------------------
COSX-INTEGRATION GRID
---------------------

General Integration Accuracy     IntAcc      ... 3.067
Radial Grid Type                 RadialGrid  ... OptM3 with GC (2021)
Angular Grid (max. ang.)         AngularGrid ... 1 (Lebedev-50)
Angular grid pruning method      GridPruning ... 4 (adaptive)
Weight generation scheme         WeightScheme... Becke
Basis function cutoff            BFCut       ... 1.0000e-11
Integration weight cutoff        WCut        ... 1.0000e-14
Angular grids for H and He will be reduced by one unit
Partially contracted basis set               ... on
Rotationally invariant grid construction     ... off

Total number of grid points                  ...     2510
Total number of batches                      ...       45
Average number of points per batch           ...       55
Average number of grid points per atom       ...      314

---------------
TD-DFT XC SETUP
---------------

DFT calculation                         ... on
Name of the grid file                   ... acrolien.1012.grid_cis.tmp
Exchange functional (TD-DFT)            ... B88
   X-Alpha parameter    XAlpha (TD-DFT) ...  0.666667
   Becke's b parameter  XBeta (TD-DFT)  ...  0.004200
Correlation functional (TD-DFT)         ... LYP
 LDA part of GGA corr.  LDAOpt (TD-DFT) ... VWN-5
Hybrid DFT                              ... on
   Exchange mixing (TD-DFT)             ...  0.200
   GGA exch. scaling (TD-DFT)           ...  0.720
   GGA corr. scaling (TD-DFT)           ...  0.810

Building densities             ... done
Calculating rho(r) on the grid ... done
Building xc-kernel on the grid ... done
                    *** TD-DFT CALCULATION INITIALIZED ***

------------------------
DAVIDSON-DIAGONALIZATION
------------------------

Dimension of the eigenvalue problem            ...    319
Number of roots to be determined               ...      1
Maximum size of the expansion space            ...     10
Maximum number of iterations                   ...    100
Convergence tolerance for the residual         ...    2.500e-07
Convergence tolerance for the energies         ...    2.500e-07
Orthogonality tolerance                        ...    1.000e-14
Level Shift                                    ...    0.000e+00
Constructing the preconditioner                ... o.k.
Building the initial guess                     ... o.k.
Number of trial vectors determined             ...     10


                       ****Iteration    0****

   Memory handling for direct AO based CIS:
   Memory per vector needed      ...     1 MB
   Memory needed                 ...     0 MB
   Memory available              ...   512 MB
   Number of vectors per batch   ...   512
   Number of batches             ...     1
   Time for densities:            0.000
   Time for RI-J (Direct):        0.043
   Time for K (COSX):             0.116
   Time for XC-Integration:       0.040
   Time for Sigma-Completion:     0.000
   Size of expansion space: 3
   Lowest Energy          :     0.153346652797
   Maximum Energy change  :     0.153346652797 (vector 0)
   Maximum residual norm  :     0.001580563612

                       ****Iteration    1****
   Time for densities:            0.000
   Time for RI-J (Direct):        0.034
   Time for K (COSX):             0.107
   Time for XC-Integration:       0.023
   Time for Sigma-Completion:     0.000
   Size of expansion space: 4
   Lowest Energy          :     0.151241702072
   Maximum Energy change  :     0.002104950726 (vector 0)
   Maximum residual norm  :     0.000376730009

                       ****Iteration    2****
   Time for densities:            0.000
   Time for RI-J (Direct):        0.034
   Time for K (COSX):             0.108
   Time for XC-Integration:       0.024
   Time for Sigma-Completion:     0.000
   Size of expansion space: 5
   Lowest Energy          :     0.150811433669
   Maximum Energy change  :     0.000430268402 (vector 0)
   Maximum residual norm  :     0.000030397159

                       ****Iteration    3****
   Time for densities:            0.000
   Time for RI-J (Direct):        0.034
   Time for K (COSX):             0.643
   Time for XC-Integration:       0.023
   Time for Sigma-Completion:     0.000
   Size of expansion space: 6
   Lowest Energy          :     0.150772410235
   Maximum Energy change  :     0.000039023434 (vector 0)
   Maximum residual norm  :     0.000001354679

                       ****Iteration    4****
   Time for densities:            0.000
   Time for RI-J (Direct):        0.034
   Time for K (COSX):             0.107
   Time for XC-Integration:       0.023
   Time for Sigma-Completion:     0.000
   Size of expansion space: 7
   Lowest Energy          :     0.150770427844
   Maximum Energy change  :     0.000001982391 (vector 0)
   Maximum residual norm  :     0.000000078780

      *** CONVERGENCE OF RESIDUAL NORM REACHED ***

Storing the converged CI vectors               ... acrolien.1012.cis1

                 *** DAVIDSON DONE ***

Total time for solving the CIS problem:     5.088sec

------------------------------------
TD-DFT/TDA EXCITED STATES (SINGLETS)
------------------------------------

the weight of the individual excitations are printed if larger than 1.0e-02

STATE  1:  E=   0.150770 au      4.103 eV    33090.3 cm**-1 <S**2> =   0.000000
    14a ->  15a  :     0.962639 (c=  0.98114192)
    14a ->  16a  :     0.029024 (c=  0.17036356)


-----------------------------
TD-DFT/TDA-EXCITATION SPECTRA
-----------------------------

Center of mass = ( -0.8543, -0.4141, -0.5411)
Calculating the Dipole integrals                  ... done
Transforming integrals                            ... done
Calculating the Linear Momentum integrals         ... done
Transforming integrals                            ... done
Calculating angular momentum integrals            ... done
Transforming integrals                            ... done

-----------------------------------------------------------------------------
         ABSORPTION SPECTRUM VIA TRANSITION ELECTRIC DIPOLE MOMENTS
-----------------------------------------------------------------------------
State   Energy    Wavelength  fosc         T2        TX        TY        TZ  
        (cm-1)      (nm)                 (au**2)    (au)      (au)      (au) 
-----------------------------------------------------------------------------
   1   33090.3    302.2   0.000821557   0.00817  -0.03078  -0.01080   0.08432

-----------------------------------------------------------------------------
         ABSORPTION SPECTRUM VIA TRANSITION VELOCITY DIPOLE MOMENTS
-----------------------------------------------------------------------------
State   Energy    Wavelength   fosc        P2         PX        PY        PZ  
        (cm-1)      (nm)                 (au**2)     (au)      (au)      (au) 
-----------------------------------------------------------------------------
   1   33090.3    302.2   0.000949639   0.00021   0.01130   0.00239   0.00902

-------------------------------------------------------------------
                             CD SPECTRUM
-------------------------------------------------------------------
State  Energy     Wavelength     R         MX        MY        MZ   
       (cm-1)       (nm)     (1e40*cgs)   (au)      (au)      (au)  
-------------------------------------------------------------------
   1   33090.3    302.2     10.38998   0.18211   0.30188   0.36649

-------------------------------------------------------------------
         CD SPECTRUM VIA TRANSITION VELOCITY DIPOLE MOMENTS        
-------------------------------------------------------------------
State  Energy     Wavelength     R         MX        MY        MZ   
       (cm-1)       (nm)     (1e40*cgs)   (au)      (au)      (au)  
-------------------------------------------------------------------
   1   33090.3    302.2     19.02178   0.18211   0.30188   0.36649

Total run time:        6.737 sec

           *** ORCA-CIS/TD-DFT FINISHED WITHOUT ERROR ***

Maximum memory used throughout the entire CIS-calculation: 42.9 MB

-----------------------
CIS/TD-DFT TOTAL ENERGY
-----------------------

    E(SCF)  =   -191.709398904 Eh
    DE(CIS) =      0.150770428 Eh (Root  1)
    ----------------------------- ---------
    E(tot)  =   -191.558628476 Eh


-------------------------   --------------------
FINAL SINGLE POINT ENERGY      -191.558628475761
-------------------------   --------------------


                            ***************************************
                            *     ORCA property calculations      *
                            ***************************************

                                    ---------------------
                                    Active property flags
                                    ---------------------
   (+) Dipole Moment


------------------------------------------------------------------------------
                       ORCA ELECTRIC PROPERTIES CALCULATION
------------------------------------------------------------------------------

Dipole Moment Calculation                       ... on
Quadrupole Moment Calculation                   ... off
Polarizability Calculation                      ... off
GBWName                                         ... acrolien.1012.gbw
Electron density                                ... acrolien.1012.scfp
The origin for moment calculation is the CENTER OF MASS  = (-0.854289, -0.414059 -0.541122)

-------------
DIPOLE MOMENT
-------------
                                X             Y             Z
Electronic contribution:     -2.71021      -0.94495      -1.57723
Nuclear contribution   :      3.23083       1.49800       2.11224
                        -----------------------------------------
Total Dipole Moment    :      0.52062       0.55305       0.53500
                        -----------------------------------------
Magnitude (a.u.)       :      0.92906
Magnitude (Debye)      :      2.36148



--------------------
Rotational spectrum 
--------------------
 
Rotational constants in cm-1:     1.044669     0.166913     0.162717 
Rotational constants in MHz : 31318.380466  5003.925321  4878.126285 

 Dipole components along the rotational axes: 
x,y,z [a.u.] :    -0.820054    -0.163027     0.405070 
x,y,z [Debye]:    -2.084411    -0.414382     1.029606 

 

Timings for individual modules:

Sum of individual times         ...       54.126 sec (=   0.902 min)
GTO integral calculation        ...        1.744 sec (=   0.029 min)   3.2 %
SCF iterations                  ...       45.630 sec (=   0.761 min)  84.3 %
CIS module                      ...        6.751 sec (=   0.113 min)  12.5 %
                             ****ORCA TERMINATED NORMALLY****
TOTAL RUN TIME: 0 days 0 hours 0 minutes 56 seconds 270 msec
