
                                 *****************
                                 * O   R   C   A *
                                 *****************

                                            #,                                       
                                            ###                                      
                                            ####                                     
                                            #####                                    
                                            ######                                   
                                           ########,                                 
                                     ,,################,,,,,                         
                               ,,#################################,,                 
                          ,,##########################################,,             
                       ,#########################################, ''#####,          
                    ,#############################################,,   '####,        
                  ,##################################################,,,,####,       
                ,###########''''           ''''###############################       
              ,#####''   ,,,,##########,,,,          '''####'''          '####       
            ,##' ,,,,###########################,,,                        '##       
           ' ,,###''''                  '''############,,,                           
         ,,##''                                '''############,,,,        ,,,,,,###''
      ,#''                                            '''#######################'''  
     '                                                          ''''####''''         
             ,#######,   #######,   ,#######,      ##                                
            ,#'     '#,  ##    ##  ,#'     '#,    #''#        ######   ,####,        
            ##       ##  ##   ,#'  ##            #'  '#       #        #'  '#        
            ##       ##  #######   ##           ,######,      #####,   #    #        
            '#,     ,#'  ##    ##  '#,     ,#' ,#      #,         ##   #,  ,#        
             '#######'   ##     ##  '#######'  #'      '#     #####' # '####'        



                  #######################################################
                  #                        -***-                        #
                  #          Department of theory and spectroscopy      #
                  #    Directorship and core code : Frank Neese         #
                  #        Max Planck Institute fuer Kohlenforschung    #
                  #                Kaiser Wilhelm Platz 1               #
                  #                 D-45470 Muelheim/Ruhr               #
                  #                      Germany                        #
                  #                                                     #
                  #                  All rights reserved                #
                  #                        -***-                        #
                  #######################################################


                         Program Version 5.0.3 -  RELEASE  -


 With contributions from (in alphabetic order):
   Daniel Aravena         : Magnetic Suceptibility
   Michael Atanasov       : Ab Initio Ligand Field Theory (pilot matlab implementation)
   Alexander A. Auer      : GIAO ZORA, VPT2 properties, NMR spectrum
   Ute Becker             : Parallelization
   Giovanni Bistoni       : ED, misc. LED, open-shell LED, HFLD
   Martin Brehm           : Molecular dynamics
   Dmytro Bykov           : SCF Hessian
   Vijay G. Chilkuri      : MRCI spin determinant printing, contributions to CSF-ICE
   Dipayan Datta          : RHF DLPNO-CCSD density
   Achintya Kumar Dutta   : EOM-CC, STEOM-CC
   Dmitry Ganyushin       : Spin-Orbit,Spin-Spin,Magnetic field MRCI
   Miquel Garcia          : C-PCM and meta-GGA Hessian, CC/C-PCM, Gaussian charge scheme
   Yang Guo               : DLPNO-NEVPT2, F12-NEVPT2, CIM, IAO-localization
   Andreas Hansen         : Spin unrestricted coupled pair/coupled cluster methods
   Benjamin Helmich-Paris : MC-RPA, TRAH-SCF, COSX integrals
   Lee Huntington         : MR-EOM, pCC
   Robert Izsak           : Overlap fitted RIJCOSX, COSX-SCS-MP3, EOM
   Marcus Kettner         : VPT2
   Christian Kollmar      : KDIIS, OOCD, Brueckner-CCSD(T), CCSD density, CASPT2, CASPT2-K
   Simone Kossmann        : Meta GGA functionals, TD-DFT gradient, OOMP2, MP2 Hessian
   Martin Krupicka        : Initial AUTO-CI
   Lucas Lang             : DCDCAS
   Marvin Lechner         : AUTO-CI (C++ implementation), FIC-MRCC
   Dagmar Lenk            : GEPOL surface, SMD
   Dimitrios Liakos       : Extrapolation schemes; Compound Job, initial MDCI parallelization
   Dimitrios Manganas     : Further ROCIS development; embedding schemes
   Dimitrios Pantazis     : SARC Basis sets
   Anastasios Papadopoulos: AUTO-CI, single reference methods and gradients
   Taras Petrenko         : DFT Hessian,TD-DFT gradient, ASA, ECA, R-Raman, ABS, FL, XAS/XES, NRVS
   Peter Pinski           : DLPNO-MP2, DLPNO-MP2 Gradient
   Christoph Reimann      : Effective Core Potentials
   Marius Retegan         : Local ZFS, SOC
   Christoph Riplinger    : Optimizer, TS searches, QM/MM, DLPNO-CCSD(T), (RO)-DLPNO pert. Triples
   Tobias Risthaus        : Range-separated hybrids, TD-DFT gradient, RPA, STAB
   Michael Roemelt        : Original ROCIS implementation
   Masaaki Saitow         : Open-shell DLPNO-CCSD energy and density
   Barbara Sandhoefer     : DKH picture change effects
   Avijit Sen             : IP-ROCIS
   Kantharuban Sivalingam : CASSCF convergence, NEVPT2, FIC-MRCI
   Bernardo de Souza      : ESD, SOC TD-DFT
   Georgi Stoychev        : AutoAux, RI-MP2 NMR, DLPNO-MP2 response
   Willem Van den Heuvel  : Paramagnetic NMR
   Boris Wezisla          : Elementary symmetry handling
   Frank Wennmohs         : Technical directorship


 We gratefully acknowledge several colleagues who have allowed us to
 interface, adapt or use parts of their codes:
   Stefan Grimme, W. Hujo, H. Kruse, P. Pracht,  : VdW corrections, initial TS optimization,
                  C. Bannwarth, S. Ehlert          DFT functionals, gCP, sTDA/sTD-DF
   Ed Valeev, F. Pavosevic, A. Kumar             : LibInt (2-el integral package), F12 methods
   Garnet Chan, S. Sharma, J. Yang, R. Olivares  : DMRG
   Ulf Ekstrom                                   : XCFun DFT Library
   Mihaly Kallay                                 : mrcc  (arbitrary order and MRCC methods)
   Jiri Pittner, Ondrej Demel                    : Mk-CCSD
   Frank Weinhold                                : gennbo (NPA and NBO analysis)
   Christopher J. Cramer and Donald G. Truhlar   : smd solvation model
   Lars Goerigk                                  : TD-DFT with DH, B97 family of functionals
   V. Asgeirsson, H. Jonsson                     : NEB implementation
   FAccTs GmbH                                   : IRC, NEB, NEB-TS, DLPNO-Multilevel, CI-OPT
                                                   MM, QMMM, 2- and 3-layer-ONIOM, Crystal-QMMM,
                                                   LR-CPCM, SF, NACMEs, symmetry and pop. for TD-DFT,
                                                   nearIR, NL-DFT gradient (VV10), updates on ESD,
                                                   ML-optimized integration grids
   S Lehtola, MJT Oliveira, MAL Marques          : LibXC Library
   Liviu Ungur et al                             : ANISO software


 Your calculation uses the libint2 library for the computation of 2-el integrals
 For citations please refer to: http://libint.valeyev.net

 Your ORCA version has been built with support for libXC version: 5.1.0
 For citations please refer to: https://tddft.org/programs/libxc/

 This ORCA versions uses:
   CBLAS   interface :  Fast vector & matrix operations
   LAPACKE interface :  Fast linear algebra routines
   SCALAPACK package :  Parallel linear algebra routines
   Shared memory     :  Shared parallel matrices
   BLAS/LAPACK       :  OpenBLAS 0.3.15  USE64BITINT DYNAMIC_ARCH NO_AFFINITY Haswell SINGLE_THREADED
        Core in use  :  Haswell
   Copyright (c) 2011-2014, The OpenBLAS Project


================================================================================

----- Orbital basis set information -----
Your calculation utilizes the basis: 6-31G
   H-He, Li-Ne : W. J. Hehre, R. Ditchfield and J.A. Pople, J. Chem. Phys. 56, 2257 (1972).
                 Note: He and Ne are unpublished basis sets taken from the Gaussian program.
                 Note: Li and B from J. D. Dill and J. A. Pople, J. Chem. Phys. 62, 2921 (1975).
   Na - Ar     : M. M. Francl, W. J. Pietro, W. J. Hehre, J. S. Binkley, M. S. Gordon, 
                 D. J. DeFrees and J. A. Pople, J. Chem. Phys. 77, 3654 (1982).
   K - Zn      : V. A. Rassolov, J. A. Pople, M. A. Ratner, and T. L. Windus, J. Chem. Phys. 109, 1223 (1998).

----- AuxJ basis set information -----
Your calculation utilizes the auxiliary basis: def2/J
   F. Weigend, Phys. Chem. Chem. Phys. 8, 1057 (2006).

================================================================================
                                        WARNINGS
                       Please study these warnings very carefully!
================================================================================

INFO   : Checking CIS options ...

INFO   : the flag for use of the SHARK integral package has been found!

================================================================================
                                       INPUT FILE
================================================================================
NAME = acrolien.541.com
|  1> ! B3LYP 6-31G
|  2> !TightSCF
|  3> %scf
|  4>  ConvForced true
|  5>  convergence tight
|  6>  MaxIter 500
|  7> end
|  8>  
|  9> %tddft 
| 10>  nroots 1
| 11> end
| 12> 
| 13> # 	17400
| 14> * xyz 0 1
| 15> 		C   -1.255379  -0.259548   0.031807
| 16> 		O   -1.198510  -1.497504   0.006263
| 17> 		C   -0.116602   0.501465  -0.024201
| 18> 		C    1.263848  -0.017643  -0.011744
| 19> 		H   -2.037335   0.344603  -0.044002
| 20> 		H   -0.132301   1.532644  -0.017002
| 21> 		H    1.424917  -1.109277   0.003414
| 22> 		H    2.062777   0.468019   0.092661
| 23> *
| 24> 
| 25>                          ****END OF INPUT****
================================================================================

                       ****************************
                       * Single Point Calculation *
                       ****************************

---------------------------------
CARTESIAN COORDINATES (ANGSTROEM)
---------------------------------
  C     -1.255379   -0.259548    0.031807
  O     -1.198510   -1.497504    0.006263
  C     -0.116602    0.501465   -0.024201
  C      1.263848   -0.017643   -0.011744
  H     -2.037335    0.344603   -0.044002
  H     -0.132301    1.532644   -0.017002
  H      1.424917   -1.109277    0.003414
  H      2.062777    0.468019    0.092661

----------------------------
CARTESIAN COORDINATES (A.U.)
----------------------------
  NO LB      ZA    FRAG     MASS         X           Y           Z
   0 C     6.0000    0    12.011   -2.372323   -0.490475    0.060107
   1 O     8.0000    0    15.999   -2.264856   -2.829872    0.011835
   2 C     6.0000    0    12.011   -0.220346    0.947632   -0.045733
   3 C     6.0000    0    12.011    2.388327   -0.033340   -0.022193
   4 H     1.0000    0     1.008   -3.850005    0.651205   -0.083152
   5 H     1.0000    0     1.008   -0.250013    2.896277   -0.032129
   6 H     1.0000    0     1.008    2.692703   -2.096230    0.006452
   7 H     1.0000    0     1.008    3.898084    0.884428    0.175104

--------------------------------
INTERNAL COORDINATES (ANGSTROEM)
--------------------------------
 C      0   0   0     0.000000000000     0.00000000     0.00000000
 O      1   0   0     1.239524762574     0.00000000     0.00000000
 C      1   2   0     1.370799306230   121.03097301     0.00000000
 C      3   1   2     1.474879823922   125.57782494   354.93819442
 H      1   2   3     0.991060351955   130.04972873   169.82006354
 H      3   1   2     1.031323622460   122.83020890   179.19872966
 H      4   3   1     1.103556875599   119.00521849     2.59469362
 H      4   3   1     0.940773899144   127.88602348   190.92982836

---------------------------
INTERNAL COORDINATES (A.U.)
---------------------------
 C      0   0   0     0.000000000000     0.00000000     0.00000000
 O      1   0   0     2.342362337478     0.00000000     0.00000000
 C      1   2   0     2.590435273345   121.03097301     0.00000000
 C      3   1   2     2.787118947659   125.57782494   354.93819442
 H      1   2   3     1.872832647383   130.04972873   169.82006354
 H      3   1   2     1.948919201892   122.83020890   179.19872966
 H      4   3   1     2.085420268087   119.00521849     2.59469362
 H      4   3   1     1.777805023323   127.88602348   190.92982836

---------------------
BASIS SET INFORMATION
---------------------
There are 3 groups of distinct atoms

 Group   1 Type C   : 10s4p contracted to 3s2p pattern {631/31}
 Group   2 Type O   : 10s4p contracted to 3s2p pattern {631/31}
 Group   3 Type H   : 4s contracted to 2s pattern {31}

Atom   0C    basis set group =>   1
Atom   1O    basis set group =>   2
Atom   2C    basis set group =>   1
Atom   3C    basis set group =>   1
Atom   4H    basis set group =>   3
Atom   5H    basis set group =>   3
Atom   6H    basis set group =>   3
Atom   7H    basis set group =>   3
---------------------------------
AUXILIARY/J BASIS SET INFORMATION
---------------------------------
There are 3 groups of distinct atoms

 Group   1 Type C   : 12s5p4d2f1g contracted to 6s4p3d1f1g pattern {711111/2111/211/2/1}
 Group   2 Type O   : 12s5p4d2f1g contracted to 6s4p3d1f1g pattern {711111/2111/211/2/1}
 Group   3 Type H   : 5s2p1d contracted to 3s1p1d pattern {311/2/1}

Atom   0C    basis set group =>   1
Atom   1O    basis set group =>   2
Atom   2C    basis set group =>   1
Atom   3C    basis set group =>   1
Atom   4H    basis set group =>   3
Atom   5H    basis set group =>   3
Atom   6H    basis set group =>   3
Atom   7H    basis set group =>   3
------------------------------------------------------------------------------
                           ORCA GTO INTEGRAL CALCULATION
                           -- RI-GTO INTEGRALS CHOSEN --
------------------------------------------------------------------------------
------------------------------------------------------------------------------
                   ___                                                        
                  /   \      - P O W E R E D   B Y -                         
                 /     \                                                     
                 |  |  |   _    _      __       _____    __    __             
                 |  |  |  | |  | |    /  \     |  _  \  |  |  /  |          
                  \  \/   | |  | |   /    \    | | | |  |  | /  /          
                 / \  \   | |__| |  /  /\  \   | |_| |  |  |/  /          
                |  |  |   |  __  | /  /__\  \  |    /   |      \           
                |  |  |   | |  | | |   __   |  |    \   |  |\   \          
                \     /   | |  | | |  |  |  |  | |\  \  |  | \   \       
                 \___/    |_|  |_| |__|  |__|  |_| \__\ |__|  \__/        
                                                                              
                      - O R C A' S   B I G   F R I E N D -                    
                                      &                                       
                       - I N T E G R A L  F E E D E R -                       
                                                                              
 v1 FN, 2020, v2 2021                                                         
------------------------------------------------------------------------------


Reading SHARK input file acrolien.541.SHARKINP.tmp ... ok
----------------------
SHARK INTEGRAL PACKAGE
----------------------

Number of atoms                             ...      8
Number of basis functions                   ...     44
Number of shells                            ...     28
Maximum angular momentum                    ...      1
Integral batch strategy                     ... SHARK/LIBINT Hybrid
RI-J (if used) integral strategy            ... SPLIT-RIJ (Revised 2003 algorithm where possible)
Printlevel                                  ...      1
Contraction scheme used                     ... SEGMENTED contraction
Coulomb Range Separation                    ... NOT USED
Exchange Range Separation                   ... NOT USED
Finite Nucleus Model                        ... NOT USED
Auxiliary Coulomb fitting basis             ... AVAILABLE
   # of basis functions in Aux-J            ...    240
   # of shells in Aux-J                     ...     80
   Maximum angular momentum in Aux-J        ...      4
Auxiliary J/K fitting basis                 ... NOT available
Auxiliary Correlation fitting basis         ... NOT available
Auxiliary 'external' fitting basis          ... NOT available
Integral threshold                          ...     2.500000e-11
Primitive cut-off                           ...     2.500000e-12
Primitive pair pre-selection threshold      ...     2.500000e-12

Calculating pre-screening integrals         ... done (  0.0 sec) Dimension = 28
Organizing shell pair data                  ... done (  0.0 sec)
Shell pair information
Total number of shell pairs                 ...       406
Shell pairs after pre-screening             ...       402
Total number of primitive shell pairs       ...      2724
Primitive shell pairs kept                  ...      2022
          la=0 lb=0:    206 shell pairs
          la=1 lb=0:    160 shell pairs
          la=1 lb=1:     36 shell pairs

Calculating one electron integrals          ... done (  0.0 sec)
Calculating RI/J V-Matrix + Cholesky decomp.... done (  0.1 sec)
Calculating Nuclear repulsion               ... done (  0.0 sec) ENN=    105.272396882570 Eh

SHARK setup successfully completed in   1.2 seconds

Maximum memory used throughout the entire GTOINT-calculation: 8.3 MB
-------------------------------------------------------------------------------
                                 ORCA SCF
-------------------------------------------------------------------------------

------------
SCF SETTINGS
------------
Hamiltonian:
 Density Functional     Method          .... DFT(GTOs)
 Exchange Functional    Exchange        .... B88
   X-Alpha parameter    XAlpha          ....  0.666667
   Becke's b parameter  XBeta           ....  0.004200
 Correlation Functional Correlation     .... LYP
 LDA part of GGA corr.  LDAOpt          .... VWN-5
 Gradients option       PostSCFGGA      .... off
 Hybrid DFT is turned on
   Fraction HF Exchange ScalHFX         ....  0.200000
   Scaling of DF-GGA-X  ScalDFX         ....  0.720000
   Scaling of DF-GGA-C  ScalDFC         ....  0.810000
   Scaling of DF-LDA-C  ScalLDAC        ....  1.000000
   Perturbative correction              ....  0.000000
   Density functional embedding theory  .... OFF
   NL short-range parameter             ....  4.800000
 RI-approximation to the Coulomb term is turned on
   Number of AuxJ basis functions       .... 240
   RIJ-COSX (HFX calculated with COS-X)).... on


General Settings:
 Integral files         IntName         .... acrolien.541
 Hartree-Fock type      HFTyp           .... RHF
 Total Charge           Charge          ....    0
 Multiplicity           Mult            ....    1
 Number of Electrons    NEL             ....   30
 Basis Dimension        Dim             ....   44
 Nuclear Repulsion      ENuc            ....    105.2723968826 Eh

Convergence Acceleration:
 DIIS                   CNVDIIS         .... on
   Start iteration      DIISMaxIt       ....    12
   Startup error        DIISStart       ....  0.200000
   # of expansion vecs  DIISMaxEq       ....     5
   Bias factor          DIISBfac        ....   1.050
   Max. coefficient     DIISMaxC        ....  10.000
 Trust-Rad. Augm. Hess. CNVTRAH         .... auto
   Auto Start mean grad. ratio tolernc. ....  1.125000
   Auto Start start iteration           ....    20
   Auto Start num. interpolation iter.  ....    10
   Max. Number of Micro iterations      ....    16
   Max. Number of Macro iterations      .... Maxiter - #DIIS iter
   Number of Davidson start vectors     ....     2
   Converg. threshold I  (grad. norm)   ....   1.000e-05
   Converg. threshold II (energy diff.) ....   1.000e-08
   Grad. Scal. Fac. for Micro threshold ....   0.100
   Minimum threshold for Micro iter.    ....   0.010
   NR start threshold (gradient norm)   ....   0.001
   Initial trust radius                 ....   0.400
   Minimum AH scaling param. (alpha)    ....   1.000
   Maximum AH scaling param. (alpha)    .... 1000.000
   Orbital update algorithm             .... Taylor
   White noise on init. David. guess    .... on
   Maximum white noise                  ....   0.010
   Quad. conv. algorithm                .... NR
 SOSCF                  CNVSOSCF        .... on
   Start iteration      SOSCFMaxIt      ....   150
   Startup grad/error   SOSCFStart      ....  0.003300
 Level Shifting         CNVShift        .... on
   Level shift para.    LevelShift      ....    0.2500
   Turn off err/grad.   ShiftErr        ....    0.0010
 Zerner damping         CNVZerner       .... off
 Static damping         CNVDamp         .... on
   Fraction old density DampFac         ....    0.7000
   Max. Damping (<1)    DampMax         ....    0.9800
   Min. Damping (>=0)   DampMin         ....    0.0000
   Turn off err/grad.   DampErr         ....    0.1000
 Fernandez-Rico         CNVRico         .... off

SCF Procedure:
 Maximum # iterations   MaxIter         ....   500
 SCF integral mode      SCFMode         .... Direct
   Integral package                     .... SHARK and LIBINT hybrid scheme
 Reset frequency        DirectResetFreq ....    20
 Integral Threshold     Thresh          ....  2.500e-11 Eh
 Primitive CutOff       TCut            ....  2.500e-12 Eh

Convergence Tolerance:
 Convergence Check Mode ConvCheckMode   .... Total+1el-Energy
 Convergence forced     ConvForced      .... 1
 Energy Change          TolE            ....  1.000e-08 Eh
 1-El. energy change                    ....  1.000e-05 Eh
 Orbital Gradient       TolG            ....  1.000e-05
 Orbital Rotation angle TolX            ....  1.000e-05
 DIIS Error             TolErr          ....  5.000e-07


Diagonalization of the overlap matrix:
Smallest eigenvalue                        ... 4.768e-03
Time for diagonalization                   ...    0.060 sec
Threshold for overlap eigenvalues          ... 1.000e-08
Number of eigenvalues below threshold      ... 0
Time for construction of square roots      ...    0.094 sec
Total time needed                          ...    0.154 sec

Time for model grid setup =    0.129 sec

------------------------------
INITIAL GUESS: MODEL POTENTIAL
------------------------------
Loading Hartree-Fock densities                     ... done
Calculating cut-offs                               ... done
Initializing the effective Hamiltonian             ... done
Setting up the integral package (SHARK)            ... done
Starting the Coulomb interaction                   ... done (   0.7 sec)
Reading the grid                                   ... done
Mapping shells                                     ... done
Starting the XC term evaluation                    ... done (   0.0 sec)
  promolecular density results
     # of electrons  =     29.999265441
     EX              =    -24.774985916
     EC              =     -0.998452063
     EX+EC           =    -25.773437979
Transforming the Hamiltonian                       ... done (   0.4 sec)
Diagonalizing the Hamiltonian                      ... done (   0.0 sec)
Back transforming the eigenvectors                 ... done (   0.0 sec)
Now organizing SCF variables                       ... done
                      ------------------
                      INITIAL GUESS DONE (   1.6 sec)
                      ------------------
-------------------
DFT GRID GENERATION
-------------------

General Integration Accuracy     IntAcc      ... 4.388
Radial Grid Type                 RadialGrid  ... OptM3 with GC (2021)
Angular Grid (max. ang.)         AngularGrid ... 4 (Lebedev-302)
Angular grid pruning method      GridPruning ... 4 (adaptive)
Weight generation scheme         WeightScheme... Becke
Basis function cutoff            BFCut       ... 1.0000e-11
Integration weight cutoff        WCut        ... 1.0000e-14
Angular grids for H and He will be reduced by one unit
Partially contracted basis set               ... off
Rotationally invariant grid construction     ... off

Total number of grid points                  ...    37356
Total number of batches                      ...      587
Average number of points per batch           ...       63
Average number of grid points per atom       ...     4670
Time for grid setup =    0.712 sec

--------------------
COSX GRID GENERATION
--------------------

GRIDX 1
-------
General Integration Accuracy     IntAcc      ... 3.816
Radial Grid Type                 RadialGrid  ... OptM3 with GC (2021)
Angular Grid (max. ang.)         AngularGrid ... 1 (Lebedev-50)
Angular grid pruning method      GridPruning ... 4 (adaptive)
Weight generation scheme         WeightScheme... Becke
Basis function cutoff            BFCut       ... 1.0000e-11
Integration weight cutoff        WCut        ... 1.0000e-14
Angular grids for H and He will be reduced by one unit
Partially contracted basis set               ... on
Rotationally invariant grid construction     ... off

Total number of grid points                  ...     4789
Total number of batches                      ...       79
Average number of points per batch           ...       60
Average number of grid points per atom       ...      599
UseSFitting                                  ... on

GRIDX 2
-------
General Integration Accuracy     IntAcc      ... 4.020
Radial Grid Type                 RadialGrid  ... OptM3 with GC (2021)
Angular Grid (max. ang.)         AngularGrid ... 2 (Lebedev-110)
Angular grid pruning method      GridPruning ... 4 (adaptive)
Weight generation scheme         WeightScheme... Becke
Basis function cutoff            BFCut       ... 1.0000e-11
Integration weight cutoff        WCut        ... 1.0000e-14
Angular grids for H and He will be reduced by one unit
Partially contracted basis set               ... on
Rotationally invariant grid construction     ... off

Total number of grid points                  ...    10534
Total number of batches                      ...      169
Average number of points per batch           ...       62
Average number of grid points per atom       ...     1317
UseSFitting                                  ... on

GRIDX 3
-------
General Integration Accuracy     IntAcc      ... 4.338
Radial Grid Type                 RadialGrid  ... OptM3 with GC (2021)
Angular Grid (max. ang.)         AngularGrid ... 3 (Lebedev-194)
Angular grid pruning method      GridPruning ... 4 (adaptive)
Weight generation scheme         WeightScheme... Becke
Basis function cutoff            BFCut       ... 1.0000e-11
Integration weight cutoff        WCut        ... 1.0000e-14
Angular grids for H and He will be reduced by one unit
Partially contracted basis set               ... on
Rotationally invariant grid construction     ... off

Total number of grid points                  ...    23247
Total number of batches                      ...      368
Average number of points per batch           ...       63
Average number of grid points per atom       ...     2906
UseSFitting                                  ... on

Time for X-Grid setup             =    3.243 sec

--------------
SCF ITERATIONS
--------------
ITER       Energy         Delta-E        Max-DP      RMS-DP      [F,P]     Damp
               ***  Starting incremental Fock matrix formation  ***
  0   -191.5636036628   0.000000000000 0.12662564  0.00836398  0.2488200 0.7000
  1   -191.6208262344  -0.057222571638 0.06979282  0.00511597  0.0905824 0.7000
                               ***Turning on DIIS***
  2   -191.6398040453  -0.018977810911 0.06410624  0.00641043  0.0375392 0.0000
  3   -191.6758399818  -0.036035936472 0.06089750  0.00420692  0.0488930 0.0000
  4   -191.6808112317  -0.004971249920 0.01305664  0.00109961  0.0288858 0.0000
  5   -191.6819752034  -0.001163971689 0.00305078  0.00029408  0.0036515 0.0000
                      *** Initiating the SOSCF procedure ***
                           *** Shutting down DIIS ***
                      *** Re-Reading the Fockian *** 
                      *** Removing any level shift *** 
ITER      Energy       Delta-E        Grad      Rot      Max-DP    RMS-DP
  6   -191.68201557  -0.0000403628  0.000493  0.000493  0.000829  0.000099
               *** Restarting incremental Fock matrix formation ***
  7   -191.68206767  -0.0000521079  0.000180  0.000547  0.000467  0.000052
  8   -191.68206791  -0.0000002363  0.000135  0.000320  0.000579  0.000042
  9   -191.68206792  -0.0000000117  0.000115  0.000166  0.000292  0.000027
 10   -191.68206803  -0.0000001106  0.000019  0.000103  0.000094  0.000006
 11   -191.68206802   0.0000000089  0.000044  0.000080  0.000060  0.000004
 12   -191.68206804  -0.0000000120  0.000005  0.000008  0.000024  0.000002
 13   -191.68206804  -0.0000000006  0.000004  0.000004  0.000013  0.000001
                 **** Energy Check signals convergence ****
              ***Rediagonalizing the Fockian in SOSCF/NRSCF***

               *****************************************************
               *                     SUCCESS                       *
               *           SCF CONVERGED AFTER  14 CYCLES          *
               *****************************************************

Old exchange energy                            =     -5.035334780 Eh
New exchange energy                            =     -5.035324086 Eh
Exchange energy change after final integration =      0.000010694 Eh
Total energy after final integration           =   -191.682057343 Eh
Final COS-X integration done in                =     0.802 sec

----------------
TOTAL SCF ENERGY
----------------

Total Energy       :         -191.68205734 Eh           -5215.93395 eV

Components:
Nuclear Repulsion  :          105.27239688 Eh            2864.60755 eV
Electronic Energy  :         -296.95445423 Eh           -8080.54151 eV
One Electron Energy:         -467.46060395 Eh          -12720.24972 eV
Two Electron Energy:          170.50614973 Eh            4639.70821 eV
Max COSX asymmetry :            0.00000129 Eh               0.00004 eV

Virial components:
Potential Energy   :         -382.86261569 Eh          -10418.22142 eV
Kinetic Energy     :          191.18055834 Eh            5202.28747 eV
Virial Ratio       :            2.00262317


DFT components:
N(Alpha)           :       14.999997383954 electrons
N(Beta)            :       14.999997383954 electrons
N(Total)           :       29.999994767909 electrons
E(X)               :      -20.045501310385 Eh       
E(C)               :       -1.186525606068 Eh       
E(XC)              :      -21.232026916453 Eh       
DFET-embed. en.    :        0.000000000000 Eh       

---------------
SCF CONVERGENCE
---------------

  Last Energy change         ...   -1.8807e-10  Tolerance :   1.0000e-08
  Last MAX-Density change    ...    2.2204e-15  Tolerance :   1.0000e-07
  Last RMS-Density change    ...    1.0156e-16  Tolerance :   5.0000e-09
  Last Orbital Gradient      ...    2.0729e-07  Tolerance :   1.0000e-05
  Last Orbital Rotation      ...    4.7616e-07  Tolerance :   1.0000e-05

             **** THE GBW FILE WAS UPDATED (acrolien.541.gbw) ****
             **** DENSITY acrolien.541.scfp WAS UPDATED ****
             **** ENERGY FILE WAS UPDATED (acrolien.541.en.tmp) ****
             **** THE GBW FILE WAS UPDATED (acrolien.541.gbw) ****
             **** DENSITY acrolien.541.scfp WAS UPDATED ****
----------------
ORBITAL ENERGIES
----------------

  NO   OCC          E(Eh)            E(eV) 
   0   2.0000     -19.137445      -520.7563 
   1   2.0000     -10.255384      -279.0632 
   2   2.0000     -10.215641      -277.9817 
   3   2.0000     -10.202152      -277.6147 
   4   2.0000      -1.044255       -28.4156 
   5   2.0000      -0.792833       -21.5741 
   6   2.0000      -0.699827       -19.0433 
   7   2.0000      -0.573815       -15.6143 
   8   2.0000      -0.519588       -14.1387 
   9   2.0000      -0.439351       -11.9553 
  10   2.0000      -0.431832       -11.7507 
  11   2.0000      -0.395646       -10.7661 
  12   2.0000      -0.380146       -10.3443 
  13   2.0000      -0.265914        -7.2359 
  14   2.0000      -0.251677        -6.8485 
  15   0.0000      -0.091536        -2.4908 
  16   0.0000       0.063901         1.7388 
  17   0.0000       0.128949         3.5089 
  18   0.0000       0.136839         3.7236 
  19   0.0000       0.184928         5.0321 
  20   0.0000       0.193984         5.2786 
  21   0.0000       0.236235         6.4283 
  22   0.0000       0.309737         8.4284 
  23   0.0000       0.389412        10.5964 
  24   0.0000       0.517485        14.0815 
  25   0.0000       0.524710        14.2781 
  26   0.0000       0.577987        15.7278 
  27   0.0000       0.585603        15.9351 
  28   0.0000       0.625999        17.0343 
  29   0.0000       0.646777        17.5997 
  30   0.0000       0.663410        18.0523 
  31   0.0000       0.715457        19.4686 
  32   0.0000       0.852359        23.1939 
  33   0.0000       0.874985        23.8095 
  34   0.0000       0.945714        25.7342 
  35   0.0000       0.962076        26.1794 
  36   0.0000       0.983344        26.7581 
  37   0.0000       1.000904        27.2360 
  38   0.0000       1.038453        28.2577 
  39   0.0000       1.106761        30.1165 
  40   0.0000       1.154475        31.4149 
  41   0.0000       1.170284        31.8451 
  42   0.0000       1.323425        36.0122 
  43   0.0000       1.817131        49.4467 

                    ********************************
                    * MULLIKEN POPULATION ANALYSIS *
                    ********************************

-----------------------
MULLIKEN ATOMIC CHARGES
-----------------------
   0 C :    0.200001
   1 O :   -0.405822
   2 C :   -0.133949
   3 C :   -0.204063
   4 H :    0.112586
   5 H :    0.125169
   6 H :    0.171291
   7 H :    0.134787
Sum of atomic charges:   -0.0000000

--------------------------------
MULLIKEN REDUCED ORBITAL CHARGES
--------------------------------
  0 C s       :     3.107399  s :     3.107399
      pz      :     0.842435  p :     2.692600
      px      :     1.053705
      py      :     0.796459
  1 O s       :     3.957201  s :     3.957201
      pz      :     1.285690  p :     4.448621
      px      :     1.835278
      py      :     1.327653
  2 C s       :     3.212439  s :     3.212439
      pz      :     1.018192  p :     2.921510
      px      :     0.918371
      py      :     0.984948
  3 C s       :     3.279993  s :     3.279993
      pz      :     0.853477  p :     2.924070
      px      :     1.004077
      py      :     1.066516
  4 H s       :     0.887414  s :     0.887414
  5 H s       :     0.874831  s :     0.874831
  6 H s       :     0.828709  s :     0.828709
  7 H s       :     0.865213  s :     0.865213


                     *******************************
                     * LOEWDIN POPULATION ANALYSIS *
                     *******************************

----------------------
LOEWDIN ATOMIC CHARGES
----------------------
   0 C :    0.093422
   1 O :   -0.248504
   2 C :   -0.169559
   3 C :   -0.126228
   4 H :    0.085646
   5 H :    0.118227
   6 H :    0.135762
   7 H :    0.111233

-------------------------------
LOEWDIN REDUCED ORBITAL CHARGES
-------------------------------
  0 C s       :     2.923749  s :     2.923749
      pz      :     0.836934  p :     2.982829
      px      :     1.122199
      py      :     1.023695
  1 O s       :     3.643223  s :     3.643223
      pz      :     1.292101  p :     4.605281
      px      :     1.875415
      py      :     1.437765
  2 C s       :     2.977590  s :     2.977590
      pz      :     1.011053  p :     3.191969
      px      :     1.076510
      py      :     1.104406
  3 C s       :     3.018814  s :     3.018814
      pz      :     0.860001  p :     3.107414
      px      :     1.100632
      py      :     1.146781
  4 H s       :     0.914354  s :     0.914354
  5 H s       :     0.881773  s :     0.881773
  6 H s       :     0.864238  s :     0.864238
  7 H s       :     0.888767  s :     0.888767


                      *****************************
                      * MAYER POPULATION ANALYSIS *
                      *****************************

  NA   - Mulliken gross atomic population
  ZA   - Total nuclear charge
  QA   - Mulliken gross atomic charge
  VA   - Mayer's total valence
  BVA  - Mayer's bonded valence
  FA   - Mayer's free valence

  ATOM       NA         ZA         QA         VA         BVA        FA
  0 C      5.8000     6.0000     0.2000     3.8249     3.8249     0.0000
  1 O      8.4058     8.0000    -0.4058     1.9974     1.9974    -0.0000
  2 C      6.1339     6.0000    -0.1339     3.7738     3.7738    -0.0000
  3 C      6.2041     6.0000    -0.2041     3.8643     3.8643     0.0000
  4 H      0.8874     1.0000     0.1126     0.9071     0.9071     0.0000
  5 H      0.8748     1.0000     0.1252     0.9360     0.9360    -0.0000
  6 H      0.8287     1.0000     0.1713     0.9415     0.9415     0.0000
  7 H      0.8652     1.0000     0.1348     0.9262     0.9262    -0.0000

  Mayer bond orders larger than 0.100000
B(  0-C ,  1-O ) :   1.8061 B(  0-C ,  2-C ) :   1.1004 B(  0-C ,  4-H ) :   0.8947 
B(  1-O ,  3-C ) :   0.1623 B(  2-C ,  3-C ) :   1.8096 B(  2-C ,  5-H ) :   0.9344 
B(  3-C ,  6-H ) :   0.9412 B(  3-C ,  7-H ) :   0.9362 

-------
TIMINGS
-------

Total SCF time: 0 days 0 hours 0 min 54 sec 

Total time                  ....      54.610 sec
Sum of individual times     ....      44.960 sec  ( 82.3%)

Fock matrix formation       ....      37.470 sec  ( 68.6%)
  Split-RI-J                ....       0.667 sec  (  1.8% of F)
  Chain of spheres X        ....       4.888 sec  ( 13.0% of F)
  XC integration            ....      12.804 sec  ( 34.2% of F)
    Basis function eval.    ....       1.099 sec  (  8.6% of XC)
    Density eval.           ....       0.430 sec  (  3.4% of XC)
    XC-Functional eval.     ....       0.702 sec  (  5.5% of XC)
    XC-Potential eval.      ....       0.264 sec  (  2.1% of XC)
Diagonalization             ....       0.004 sec  (  0.0%)
Density matrix formation    ....       0.000 sec  (  0.0%)
Population analysis         ....       1.068 sec  (  2.0%)
Initial guess               ....       1.491 sec  (  2.7%)
Orbital Transformation      ....       0.000 sec  (  0.0%)
Orbital Orthonormalization  ....       0.000 sec  (  0.0%)
DIIS solution               ....       0.002 sec  (  0.0%)
SOSCF solution              ....       0.842 sec  (  1.5%)
Grid generation             ....       4.084 sec  (  7.5%)

Maximum memory used throughout the entire SCF-calculation: 46.8 MB
------------------------------------------------------------------------------
                        ORCA TD-DFT/TDA CALCULATION
------------------------------------------------------------------------------

Input orbitals are from        ... acrolien.541.gbw
CI-vector output               ... acrolien.541.cis
Tamm-Dancoff approximation     ... operative
CIS-Integral strategy          ... AO-integrals
Integral handling              ... AO integral Direct
Max. core memory used          ... 512 MB
Reference state                ... RHF
Generation of triplets         ... off
Follow IRoot                   ... off
Number of operators            ... 1
Orbital ranges used for CIS calculation:
 Operator 0:  Orbitals   4... 14  to  15... 43
XAS localization array:
 Operator 0:  Orbitals  -1... -1

-------------------
XC-INTEGRATION GRID
-------------------

General Integration Accuracy     IntAcc      ... 3.467
Radial Grid Type                 RadialGrid  ... OptM3 with GC (2021)
Angular Grid (max. ang.)         AngularGrid ... 1 (Lebedev-50)
Angular grid pruning method      GridPruning ... 4 (adaptive)
Weight generation scheme         WeightScheme... Becke
Basis function cutoff            BFCut       ... 1.0000e-11
Integration weight cutoff        WCut        ... 1.0000e-14
Angular grids for H and He will be reduced by one unit
Partially contracted basis set               ... off
Rotationally invariant grid construction     ... off

Total number of grid points                  ...     5480
Total number of batches                      ...       90
Average number of points per batch           ...       60
Average number of grid points per atom       ...      685

---------------------
COSX-INTEGRATION GRID
---------------------

General Integration Accuracy     IntAcc      ... 3.067
Radial Grid Type                 RadialGrid  ... OptM3 with GC (2021)
Angular Grid (max. ang.)         AngularGrid ... 1 (Lebedev-50)
Angular grid pruning method      GridPruning ... 4 (adaptive)
Weight generation scheme         WeightScheme... Becke
Basis function cutoff            BFCut       ... 1.0000e-11
Integration weight cutoff        WCut        ... 1.0000e-14
Angular grids for H and He will be reduced by one unit
Partially contracted basis set               ... on
Rotationally invariant grid construction     ... off

Total number of grid points                  ...     2500
Total number of batches                      ...       45
Average number of points per batch           ...       55
Average number of grid points per atom       ...      312

---------------
TD-DFT XC SETUP
---------------

DFT calculation                         ... on
Name of the grid file                   ... acrolien.541.grid_cis.tmp
Exchange functional (TD-DFT)            ... B88
   X-Alpha parameter    XAlpha (TD-DFT) ...  0.666667
   Becke's b parameter  XBeta (TD-DFT)  ...  0.004200
Correlation functional (TD-DFT)         ... LYP
 LDA part of GGA corr.  LDAOpt (TD-DFT) ... VWN-5
Hybrid DFT                              ... on
   Exchange mixing (TD-DFT)             ...  0.200
   GGA exch. scaling (TD-DFT)           ...  0.720
   GGA corr. scaling (TD-DFT)           ...  0.810

Building densities             ... done
Calculating rho(r) on the grid ... done
Building xc-kernel on the grid ... done
                    *** TD-DFT CALCULATION INITIALIZED ***

------------------------
DAVIDSON-DIAGONALIZATION
------------------------

Dimension of the eigenvalue problem            ...    319
Number of roots to be determined               ...      1
Maximum size of the expansion space            ...     10
Maximum number of iterations                   ...    100
Convergence tolerance for the residual         ...    2.500e-07
Convergence tolerance for the energies         ...    2.500e-07
Orthogonality tolerance                        ...    1.000e-14
Level Shift                                    ...    0.000e+00
Constructing the preconditioner                ... o.k.
Building the initial guess                     ... o.k.
Number of trial vectors determined             ...     10


                       ****Iteration    0****

   Memory handling for direct AO based CIS:
   Memory per vector needed      ...     1 MB
   Memory needed                 ...     0 MB
   Memory available              ...   512 MB
   Number of vectors per batch   ...   512
   Number of batches             ...     1
   Time for densities:            0.000
   Time for RI-J (Direct):        0.043
   Time for K (COSX):             0.117
   Time for XC-Integration:       0.038
   Time for Sigma-Completion:     0.000
   Size of expansion space: 3
   Lowest Energy          :     0.105464869425
   Maximum Energy change  :     0.105464869425 (vector 0)
   Maximum residual norm  :     0.000654250493

                       ****Iteration    1****
   Time for densities:            0.000
   Time for RI-J (Direct):        0.035
   Time for K (COSX):             0.547
   Time for XC-Integration:       0.022
   Time for Sigma-Completion:     0.000
   Size of expansion space: 4
   Lowest Energy          :     0.103216792014
   Maximum Energy change  :     0.002248077411 (vector 0)
   Maximum residual norm  :     0.000033928758

                       ****Iteration    2****
   Time for densities:            0.000
   Time for RI-J (Direct):        0.035
   Time for K (COSX):             0.108
   Time for XC-Integration:       0.022
   Time for Sigma-Completion:     0.000
   Size of expansion space: 5
   Lowest Energy          :     0.103167559535
   Maximum Energy change  :     0.000049232479 (vector 0)
   Maximum residual norm  :     0.000003848700

                       ****Iteration    3****
   Time for densities:            0.000
   Time for RI-J (Direct):        0.043
   Time for K (COSX):             0.108
   Time for XC-Integration:       0.023
   Time for Sigma-Completion:     0.000
   Size of expansion space: 6
   Lowest Energy          :     0.103164042611
   Maximum Energy change  :     0.000003516924 (vector 0)
   Maximum residual norm  :     0.000000336514

                       ****Iteration    4****
   Time for densities:            0.000
   Time for RI-J (Direct):        0.035
   Time for K (COSX):             0.271
   Time for XC-Integration:       0.022
   Time for Sigma-Completion:     0.000
   Size of expansion space: 7
   Lowest Energy          :     0.103163676140
   Maximum Energy change  :     0.000000366471 (vector 0)
   Maximum residual norm  :     0.000000022743

      *** CONVERGENCE OF RESIDUAL NORM REACHED ***

Storing the converged CI vectors               ... acrolien.541.cis1

                 *** DAVIDSON DONE ***

Total time for solving the CIS problem:     1.662sec

------------------------------------
TD-DFT/TDA EXCITED STATES (SINGLETS)
------------------------------------

the weight of the individual excitations are printed if larger than 1.0e-02

STATE  1:  E=   0.103164 au      2.807 eV    22641.8 cm**-1 <S**2> =   0.000000
    14a ->  15a  :     0.977922 (c=  0.98889961)
    14a ->  16a  :     0.011257 (c= -0.10610012)


-----------------------------
TD-DFT/TDA-EXCITATION SPECTRA
-----------------------------

Center of mass = ( -0.6453, -0.6748,  0.0029)
Calculating the Dipole integrals                  ... done
Transforming integrals                            ... done
Calculating the Linear Momentum integrals         ... done
Transforming integrals                            ... done
Calculating angular momentum integrals            ... done
Transforming integrals                            ... done

-----------------------------------------------------------------------------
         ABSORPTION SPECTRUM VIA TRANSITION ELECTRIC DIPOLE MOMENTS
-----------------------------------------------------------------------------
State   Energy    Wavelength  fosc         T2        TX        TY        TZ  
        (cm-1)      (nm)                 (au**2)    (au)      (au)      (au) 
-----------------------------------------------------------------------------
   1   22641.8    441.7   0.000004258   0.00006   0.00475   0.00624  -0.00065

-----------------------------------------------------------------------------
         ABSORPTION SPECTRUM VIA TRANSITION VELOCITY DIPOLE MOMENTS
-----------------------------------------------------------------------------
State   Energy    Wavelength   fosc        P2         PX        PY        PZ  
        (cm-1)      (nm)                 (au**2)     (au)      (au)      (au) 
-----------------------------------------------------------------------------
   1   22641.8    441.7   0.000197617   0.00003   0.00279   0.00148   0.00454

-------------------------------------------------------------------
                             CD SPECTRUM
-------------------------------------------------------------------
State  Energy     Wavelength     R         MX        MY        MZ   
       (cm-1)       (nm)     (1e40*cgs)   (au)      (au)      (au)  
-------------------------------------------------------------------
   1   22641.8    441.7     -1.00443   0.01087  -0.34828   0.01267

-------------------------------------------------------------------
         CD SPECTRUM VIA TRANSITION VELOCITY DIPOLE MOMENTS        
-------------------------------------------------------------------
State  Energy     Wavelength     R         MX        MY        MZ   
       (cm-1)       (nm)     (1e40*cgs)   (au)      (au)      (au)  
-------------------------------------------------------------------
   1   22641.8    441.7     -1.96024   0.01087  -0.34828   0.01267

Total run time:        3.605 sec

           *** ORCA-CIS/TD-DFT FINISHED WITHOUT ERROR ***

Maximum memory used throughout the entire CIS-calculation: 42.9 MB

-----------------------
CIS/TD-DFT TOTAL ENERGY
-----------------------

    E(SCF)  =   -191.682057343 Eh
    DE(CIS) =      0.103163676 Eh (Root  1)
    ----------------------------- ---------
    E(tot)  =   -191.578893667 Eh


-------------------------   --------------------
FINAL SINGLE POINT ENERGY      -191.578893666653
-------------------------   --------------------


                            ***************************************
                            *     ORCA property calculations      *
                            ***************************************

                                    ---------------------
                                    Active property flags
                                    ---------------------
   (+) Dipole Moment


------------------------------------------------------------------------------
                       ORCA ELECTRIC PROPERTIES CALCULATION
------------------------------------------------------------------------------

Dipole Moment Calculation                       ... on
Quadrupole Moment Calculation                   ... off
Polarizability Calculation                      ... off
GBWName                                         ... acrolien.541.gbw
Electron density                                ... acrolien.541.scfp
The origin for moment calculation is the CENTER OF MASS  = (-0.645317, -0.674770  0.002894)

-------------
DIPOLE MOMENT
-------------
                                X             Y             Z
Electronic contribution:     -1.94971      -1.37138       0.00642
Nuclear contribution   :      2.50540       2.48270       0.02723
                        -----------------------------------------
Total Dipole Moment    :      0.55568       1.11132       0.03364
                        -----------------------------------------
Magnitude (a.u.)       :      1.24296
Magnitude (Debye)      :      3.15935



--------------------
Rotational spectrum 
--------------------
 
Rotational constants in cm-1:     0.715956     0.215338     0.165637 
Rotational constants in MHz : 21463.812143  6455.660589  4965.675141 

 Dipole components along the rotational axes: 
x,y,z [a.u.] :     1.026490    -0.699514     0.044125 
x,y,z [Debye]:     2.609131    -1.778023     0.112157 

 

Timings for individual modules:

Sum of individual times         ...       60.786 sec (=   1.013 min)
GTO integral calculation        ...        1.830 sec (=   0.030 min)   3.0 %
SCF iterations                  ...       55.325 sec (=   0.922 min)  91.0 %
CIS module                      ...        3.632 sec (=   0.061 min)   6.0 %
                             ****ORCA TERMINATED NORMALLY****
TOTAL RUN TIME: 0 days 0 hours 1 minutes 1 seconds 550 msec
