
                                 *****************
                                 * O   R   C   A *
                                 *****************

                                            #,                                       
                                            ###                                      
                                            ####                                     
                                            #####                                    
                                            ######                                   
                                           ########,                                 
                                     ,,################,,,,,                         
                               ,,#################################,,                 
                          ,,##########################################,,             
                       ,#########################################, ''#####,          
                    ,#############################################,,   '####,        
                  ,##################################################,,,,####,       
                ,###########''''           ''''###############################       
              ,#####''   ,,,,##########,,,,          '''####'''          '####       
            ,##' ,,,,###########################,,,                        '##       
           ' ,,###''''                  '''############,,,                           
         ,,##''                                '''############,,,,        ,,,,,,###''
      ,#''                                            '''#######################'''  
     '                                                          ''''####''''         
             ,#######,   #######,   ,#######,      ##                                
            ,#'     '#,  ##    ##  ,#'     '#,    #''#        ######   ,####,        
            ##       ##  ##   ,#'  ##            #'  '#       #        #'  '#        
            ##       ##  #######   ##           ,######,      #####,   #    #        
            '#,     ,#'  ##    ##  '#,     ,#' ,#      #,         ##   #,  ,#        
             '#######'   ##     ##  '#######'  #'      '#     #####' # '####'        



                  #######################################################
                  #                        -***-                        #
                  #          Department of theory and spectroscopy      #
                  #    Directorship and core code : Frank Neese         #
                  #        Max Planck Institute fuer Kohlenforschung    #
                  #                Kaiser Wilhelm Platz 1               #
                  #                 D-45470 Muelheim/Ruhr               #
                  #                      Germany                        #
                  #                                                     #
                  #                  All rights reserved                #
                  #                        -***-                        #
                  #######################################################


                         Program Version 5.0.3 -  RELEASE  -


 With contributions from (in alphabetic order):
   Daniel Aravena         : Magnetic Suceptibility
   Michael Atanasov       : Ab Initio Ligand Field Theory (pilot matlab implementation)
   Alexander A. Auer      : GIAO ZORA, VPT2 properties, NMR spectrum
   Ute Becker             : Parallelization
   Giovanni Bistoni       : ED, misc. LED, open-shell LED, HFLD
   Martin Brehm           : Molecular dynamics
   Dmytro Bykov           : SCF Hessian
   Vijay G. Chilkuri      : MRCI spin determinant printing, contributions to CSF-ICE
   Dipayan Datta          : RHF DLPNO-CCSD density
   Achintya Kumar Dutta   : EOM-CC, STEOM-CC
   Dmitry Ganyushin       : Spin-Orbit,Spin-Spin,Magnetic field MRCI
   Miquel Garcia          : C-PCM and meta-GGA Hessian, CC/C-PCM, Gaussian charge scheme
   Yang Guo               : DLPNO-NEVPT2, F12-NEVPT2, CIM, IAO-localization
   Andreas Hansen         : Spin unrestricted coupled pair/coupled cluster methods
   Benjamin Helmich-Paris : MC-RPA, TRAH-SCF, COSX integrals
   Lee Huntington         : MR-EOM, pCC
   Robert Izsak           : Overlap fitted RIJCOSX, COSX-SCS-MP3, EOM
   Marcus Kettner         : VPT2
   Christian Kollmar      : KDIIS, OOCD, Brueckner-CCSD(T), CCSD density, CASPT2, CASPT2-K
   Simone Kossmann        : Meta GGA functionals, TD-DFT gradient, OOMP2, MP2 Hessian
   Martin Krupicka        : Initial AUTO-CI
   Lucas Lang             : DCDCAS
   Marvin Lechner         : AUTO-CI (C++ implementation), FIC-MRCC
   Dagmar Lenk            : GEPOL surface, SMD
   Dimitrios Liakos       : Extrapolation schemes; Compound Job, initial MDCI parallelization
   Dimitrios Manganas     : Further ROCIS development; embedding schemes
   Dimitrios Pantazis     : SARC Basis sets
   Anastasios Papadopoulos: AUTO-CI, single reference methods and gradients
   Taras Petrenko         : DFT Hessian,TD-DFT gradient, ASA, ECA, R-Raman, ABS, FL, XAS/XES, NRVS
   Peter Pinski           : DLPNO-MP2, DLPNO-MP2 Gradient
   Christoph Reimann      : Effective Core Potentials
   Marius Retegan         : Local ZFS, SOC
   Christoph Riplinger    : Optimizer, TS searches, QM/MM, DLPNO-CCSD(T), (RO)-DLPNO pert. Triples
   Tobias Risthaus        : Range-separated hybrids, TD-DFT gradient, RPA, STAB
   Michael Roemelt        : Original ROCIS implementation
   Masaaki Saitow         : Open-shell DLPNO-CCSD energy and density
   Barbara Sandhoefer     : DKH picture change effects
   Avijit Sen             : IP-ROCIS
   Kantharuban Sivalingam : CASSCF convergence, NEVPT2, FIC-MRCI
   Bernardo de Souza      : ESD, SOC TD-DFT
   Georgi Stoychev        : AutoAux, RI-MP2 NMR, DLPNO-MP2 response
   Willem Van den Heuvel  : Paramagnetic NMR
   Boris Wezisla          : Elementary symmetry handling
   Frank Wennmohs         : Technical directorship


 We gratefully acknowledge several colleagues who have allowed us to
 interface, adapt or use parts of their codes:
   Stefan Grimme, W. Hujo, H. Kruse, P. Pracht,  : VdW corrections, initial TS optimization,
                  C. Bannwarth, S. Ehlert          DFT functionals, gCP, sTDA/sTD-DF
   Ed Valeev, F. Pavosevic, A. Kumar             : LibInt (2-el integral package), F12 methods
   Garnet Chan, S. Sharma, J. Yang, R. Olivares  : DMRG
   Ulf Ekstrom                                   : XCFun DFT Library
   Mihaly Kallay                                 : mrcc  (arbitrary order and MRCC methods)
   Jiri Pittner, Ondrej Demel                    : Mk-CCSD
   Frank Weinhold                                : gennbo (NPA and NBO analysis)
   Christopher J. Cramer and Donald G. Truhlar   : smd solvation model
   Lars Goerigk                                  : TD-DFT with DH, B97 family of functionals
   V. Asgeirsson, H. Jonsson                     : NEB implementation
   FAccTs GmbH                                   : IRC, NEB, NEB-TS, DLPNO-Multilevel, CI-OPT
                                                   MM, QMMM, 2- and 3-layer-ONIOM, Crystal-QMMM,
                                                   LR-CPCM, SF, NACMEs, symmetry and pop. for TD-DFT,
                                                   nearIR, NL-DFT gradient (VV10), updates on ESD,
                                                   ML-optimized integration grids
   S Lehtola, MJT Oliveira, MAL Marques          : LibXC Library
   Liviu Ungur et al                             : ANISO software


 Your calculation uses the libint2 library for the computation of 2-el integrals
 For citations please refer to: http://libint.valeyev.net

 Your ORCA version has been built with support for libXC version: 5.1.0
 For citations please refer to: https://tddft.org/programs/libxc/

 This ORCA versions uses:
   CBLAS   interface :  Fast vector & matrix operations
   LAPACKE interface :  Fast linear algebra routines
   SCALAPACK package :  Parallel linear algebra routines
   Shared memory     :  Shared parallel matrices
   BLAS/LAPACK       :  OpenBLAS 0.3.15  USE64BITINT DYNAMIC_ARCH NO_AFFINITY Haswell SINGLE_THREADED
        Core in use  :  Haswell
   Copyright (c) 2011-2014, The OpenBLAS Project


================================================================================

----- Orbital basis set information -----
Your calculation utilizes the basis: 6-31G
   H-He, Li-Ne : W. J. Hehre, R. Ditchfield and J.A. Pople, J. Chem. Phys. 56, 2257 (1972).
                 Note: He and Ne are unpublished basis sets taken from the Gaussian program.
                 Note: Li and B from J. D. Dill and J. A. Pople, J. Chem. Phys. 62, 2921 (1975).
   Na - Ar     : M. M. Francl, W. J. Pietro, W. J. Hehre, J. S. Binkley, M. S. Gordon, 
                 D. J. DeFrees and J. A. Pople, J. Chem. Phys. 77, 3654 (1982).
   K - Zn      : V. A. Rassolov, J. A. Pople, M. A. Ratner, and T. L. Windus, J. Chem. Phys. 109, 1223 (1998).

----- AuxJ basis set information -----
Your calculation utilizes the auxiliary basis: def2/J
   F. Weigend, Phys. Chem. Chem. Phys. 8, 1057 (2006).

================================================================================
                                        WARNINGS
                       Please study these warnings very carefully!
================================================================================

INFO   : Checking CIS options ...

INFO   : the flag for use of the SHARK integral package has been found!

================================================================================
                                       INPUT FILE
================================================================================
NAME = acrolien.746.com
|  1> ! B3LYP 6-31G
|  2> !TightSCF
|  3> %scf
|  4>  ConvForced true
|  5>  convergence tight
|  6>  MaxIter 500
|  7> end
|  8>  
|  9> %tddft 
| 10>  nroots 1
| 11> end
| 12> 
| 13> # 	717
| 14> * xyz 0 1
| 15> 		C   -1.148664  -0.375288  -0.036693
| 16> 		O   -2.125313  -0.482405   0.716438
| 17> 		C   -0.007736   0.467549   0.259675
| 18> 		C    1.207658   0.089527  -0.205216
| 19> 		H   -1.161949  -0.929691  -0.918540
| 20> 		H   -0.217068   1.248960   0.983733
| 21> 		H    1.236309  -0.730435  -0.947282
| 22> 		H    2.152770   0.713277   0.121270
| 23> *
| 24> 
| 25>                          ****END OF INPUT****
================================================================================

                       ****************************
                       * Single Point Calculation *
                       ****************************

---------------------------------
CARTESIAN COORDINATES (ANGSTROEM)
---------------------------------
  C     -1.148664   -0.375288   -0.036693
  O     -2.125313   -0.482405    0.716438
  C     -0.007736    0.467549    0.259675
  C      1.207658    0.089527   -0.205216
  H     -1.161949   -0.929691   -0.918540
  H     -0.217068    1.248960    0.983733
  H      1.236309   -0.730435   -0.947282
  H      2.152770    0.713277    0.121270

----------------------------
CARTESIAN COORDINATES (A.U.)
----------------------------
  NO LB      ZA    FRAG     MASS         X           Y           Z
   0 C     6.0000    0    12.011   -2.170660   -0.709192   -0.069340
   1 O     8.0000    0    15.999   -4.016260   -0.911613    1.353872
   2 C     6.0000    0    12.011   -0.014619    0.883540    0.490715
   3 C     6.0000    0    12.011    2.282143    0.169182   -0.387802
   4 H     1.0000    0     1.008   -2.195765   -1.756861   -1.735789
   5 H     1.0000    0     1.008   -0.410199    2.360192    1.858986
   6 H     1.0000    0     1.008    2.336285   -1.380322   -1.790104
   7 H     1.0000    0     1.008    4.068146    1.347898    0.229167

--------------------------------
INTERNAL COORDINATES (ANGSTROEM)
--------------------------------
 C      0   0   0     0.000000000000     0.00000000     0.00000000
 O      1   0   0     1.237951381942     0.00000000     0.00000000
 C      1   2   0     1.449111762832   123.16467722     0.00000000
 C      3   1   2     1.355067101512   118.27836191   149.16854123
 H      1   2   3     1.041726119977   117.31541011   179.59304113
 H      3   1   2     1.085671692782   113.77912337   339.20753122
 H      4   3   1     1.106264213288   117.39559225    11.61344800
 H      4   3   1     1.178513412414   118.46351288   185.90023746

---------------------------
INTERNAL COORDINATES (A.U.)
---------------------------
 C      0   0   0     0.000000000000     0.00000000     0.00000000
 O      1   0   0     2.339389078979     0.00000000     0.00000000
 C      1   2   0     2.738424369196   123.16467722     0.00000000
 C      3   1   2     2.560705714945   118.27836191   149.16854123
 H      1   2   3     1.968577073310   117.31541011   179.59304113
 H      3   1   2     2.051622170709   113.77912337   339.20753122
 H      4   3   1     2.090536394872   117.39559225    11.61344800
 H      4   3   1     2.227067594616   118.46351288   185.90023746

---------------------
BASIS SET INFORMATION
---------------------
There are 3 groups of distinct atoms

 Group   1 Type C   : 10s4p contracted to 3s2p pattern {631/31}
 Group   2 Type O   : 10s4p contracted to 3s2p pattern {631/31}
 Group   3 Type H   : 4s contracted to 2s pattern {31}

Atom   0C    basis set group =>   1
Atom   1O    basis set group =>   2
Atom   2C    basis set group =>   1
Atom   3C    basis set group =>   1
Atom   4H    basis set group =>   3
Atom   5H    basis set group =>   3
Atom   6H    basis set group =>   3
Atom   7H    basis set group =>   3
---------------------------------
AUXILIARY/J BASIS SET INFORMATION
---------------------------------
There are 3 groups of distinct atoms

 Group   1 Type C   : 12s5p4d2f1g contracted to 6s4p3d1f1g pattern {711111/2111/211/2/1}
 Group   2 Type O   : 12s5p4d2f1g contracted to 6s4p3d1f1g pattern {711111/2111/211/2/1}
 Group   3 Type H   : 5s2p1d contracted to 3s1p1d pattern {311/2/1}

Atom   0C    basis set group =>   1
Atom   1O    basis set group =>   2
Atom   2C    basis set group =>   1
Atom   3C    basis set group =>   1
Atom   4H    basis set group =>   3
Atom   5H    basis set group =>   3
Atom   6H    basis set group =>   3
Atom   7H    basis set group =>   3
------------------------------------------------------------------------------
                           ORCA GTO INTEGRAL CALCULATION
                           -- RI-GTO INTEGRALS CHOSEN --
------------------------------------------------------------------------------
------------------------------------------------------------------------------
                   ___                                                        
                  /   \      - P O W E R E D   B Y -                         
                 /     \                                                     
                 |  |  |   _    _      __       _____    __    __             
                 |  |  |  | |  | |    /  \     |  _  \  |  |  /  |          
                  \  \/   | |  | |   /    \    | | | |  |  | /  /          
                 / \  \   | |__| |  /  /\  \   | |_| |  |  |/  /          
                |  |  |   |  __  | /  /__\  \  |    /   |      \           
                |  |  |   | |  | | |   __   |  |    \   |  |\   \          
                \     /   | |  | | |  |  |  |  | |\  \  |  | \   \       
                 \___/    |_|  |_| |__|  |__|  |_| \__\ |__|  \__/        
                                                                              
                      - O R C A' S   B I G   F R I E N D -                    
                                      &                                       
                       - I N T E G R A L  F E E D E R -                       
                                                                              
 v1 FN, 2020, v2 2021                                                         
------------------------------------------------------------------------------


Reading SHARK input file acrolien.746.SHARKINP.tmp ... ok
----------------------
SHARK INTEGRAL PACKAGE
----------------------

Number of atoms                             ...      8
Number of basis functions                   ...     44
Number of shells                            ...     28
Maximum angular momentum                    ...      1
Integral batch strategy                     ... SHARK/LIBINT Hybrid
RI-J (if used) integral strategy            ... SPLIT-RIJ (Revised 2003 algorithm where possible)
Printlevel                                  ...      1
Contraction scheme used                     ... SEGMENTED contraction
Coulomb Range Separation                    ... NOT USED
Exchange Range Separation                   ... NOT USED
Finite Nucleus Model                        ... NOT USED
Auxiliary Coulomb fitting basis             ... AVAILABLE
   # of basis functions in Aux-J            ...    240
   # of shells in Aux-J                     ...     80
   Maximum angular momentum in Aux-J        ...      4
Auxiliary J/K fitting basis                 ... NOT available
Auxiliary Correlation fitting basis         ... NOT available
Auxiliary 'external' fitting basis          ... NOT available
Integral threshold                          ...     2.500000e-11
Primitive cut-off                           ...     2.500000e-12
Primitive pair pre-selection threshold      ...     2.500000e-12

Calculating pre-screening integrals         ... done (  0.0 sec) Dimension = 28
Organizing shell pair data                  ... done (  0.1 sec)
Shell pair information
Total number of shell pairs                 ...       406
Shell pairs after pre-screening             ...       397
Total number of primitive shell pairs       ...      2724
Primitive shell pairs kept                  ...      1988
          la=0 lb=0:    203 shell pairs
          la=1 lb=0:    158 shell pairs
          la=1 lb=1:     36 shell pairs

Calculating one electron integrals          ... done (  0.0 sec)
Calculating RI/J V-Matrix + Cholesky decomp.... done (  0.1 sec)
Calculating Nuclear repulsion               ... done (  0.0 sec) ENN=    102.905813591615 Eh

SHARK setup successfully completed in   1.2 seconds

Maximum memory used throughout the entire GTOINT-calculation: 8.3 MB
-------------------------------------------------------------------------------
                                 ORCA SCF
-------------------------------------------------------------------------------

------------
SCF SETTINGS
------------
Hamiltonian:
 Density Functional     Method          .... DFT(GTOs)
 Exchange Functional    Exchange        .... B88
   X-Alpha parameter    XAlpha          ....  0.666667
   Becke's b parameter  XBeta           ....  0.004200
 Correlation Functional Correlation     .... LYP
 LDA part of GGA corr.  LDAOpt          .... VWN-5
 Gradients option       PostSCFGGA      .... off
 Hybrid DFT is turned on
   Fraction HF Exchange ScalHFX         ....  0.200000
   Scaling of DF-GGA-X  ScalDFX         ....  0.720000
   Scaling of DF-GGA-C  ScalDFC         ....  0.810000
   Scaling of DF-LDA-C  ScalLDAC        ....  1.000000
   Perturbative correction              ....  0.000000
   Density functional embedding theory  .... OFF
   NL short-range parameter             ....  4.800000
 RI-approximation to the Coulomb term is turned on
   Number of AuxJ basis functions       .... 240
   RIJ-COSX (HFX calculated with COS-X)).... on


General Settings:
 Integral files         IntName         .... acrolien.746
 Hartree-Fock type      HFTyp           .... RHF
 Total Charge           Charge          ....    0
 Multiplicity           Mult            ....    1
 Number of Electrons    NEL             ....   30
 Basis Dimension        Dim             ....   44
 Nuclear Repulsion      ENuc            ....    102.9058135916 Eh

Convergence Acceleration:
 DIIS                   CNVDIIS         .... on
   Start iteration      DIISMaxIt       ....    12
   Startup error        DIISStart       ....  0.200000
   # of expansion vecs  DIISMaxEq       ....     5
   Bias factor          DIISBfac        ....   1.050
   Max. coefficient     DIISMaxC        ....  10.000
 Trust-Rad. Augm. Hess. CNVTRAH         .... auto
   Auto Start mean grad. ratio tolernc. ....  1.125000
   Auto Start start iteration           ....    20
   Auto Start num. interpolation iter.  ....    10
   Max. Number of Micro iterations      ....    16
   Max. Number of Macro iterations      .... Maxiter - #DIIS iter
   Number of Davidson start vectors     ....     2
   Converg. threshold I  (grad. norm)   ....   1.000e-05
   Converg. threshold II (energy diff.) ....   1.000e-08
   Grad. Scal. Fac. for Micro threshold ....   0.100
   Minimum threshold for Micro iter.    ....   0.010
   NR start threshold (gradient norm)   ....   0.001
   Initial trust radius                 ....   0.400
   Minimum AH scaling param. (alpha)    ....   1.000
   Maximum AH scaling param. (alpha)    .... 1000.000
   Orbital update algorithm             .... Taylor
   White noise on init. David. guess    .... on
   Maximum white noise                  ....   0.010
   Quad. conv. algorithm                .... NR
 SOSCF                  CNVSOSCF        .... on
   Start iteration      SOSCFMaxIt      ....   150
   Startup grad/error   SOSCFStart      ....  0.003300
 Level Shifting         CNVShift        .... on
   Level shift para.    LevelShift      ....    0.2500
   Turn off err/grad.   ShiftErr        ....    0.0010
 Zerner damping         CNVZerner       .... off
 Static damping         CNVDamp         .... on
   Fraction old density DampFac         ....    0.7000
   Max. Damping (<1)    DampMax         ....    0.9800
   Min. Damping (>=0)   DampMin         ....    0.0000
   Turn off err/grad.   DampErr         ....    0.1000
 Fernandez-Rico         CNVRico         .... off

SCF Procedure:
 Maximum # iterations   MaxIter         ....   500
 SCF integral mode      SCFMode         .... Direct
   Integral package                     .... SHARK and LIBINT hybrid scheme
 Reset frequency        DirectResetFreq ....    20
 Integral Threshold     Thresh          ....  2.500e-11 Eh
 Primitive CutOff       TCut            ....  2.500e-12 Eh

Convergence Tolerance:
 Convergence Check Mode ConvCheckMode   .... Total+1el-Energy
 Convergence forced     ConvForced      .... 1
 Energy Change          TolE            ....  1.000e-08 Eh
 1-El. energy change                    ....  1.000e-05 Eh
 Orbital Gradient       TolG            ....  1.000e-05
 Orbital Rotation angle TolX            ....  1.000e-05
 DIIS Error             TolErr          ....  5.000e-07


Diagonalization of the overlap matrix:
Smallest eigenvalue                        ... 5.907e-03
Time for diagonalization                   ...    0.061 sec
Threshold for overlap eigenvalues          ... 1.000e-08
Number of eigenvalues below threshold      ... 0
Time for construction of square roots      ...    0.078 sec
Total time needed                          ...    0.138 sec

Time for model grid setup =    0.052 sec

------------------------------
INITIAL GUESS: MODEL POTENTIAL
------------------------------
Loading Hartree-Fock densities                     ... done
Calculating cut-offs                               ... done
Initializing the effective Hamiltonian             ... done
Setting up the integral package (SHARK)            ... done
Starting the Coulomb interaction                   ... done (   0.4 sec)
Reading the grid                                   ... done
Mapping shells                                     ... done
Starting the XC term evaluation                    ... done (   0.0 sec)
  promolecular density results
     # of electrons  =     29.997990857
     EX              =    -24.730851403
     EC              =     -0.995292978
     EX+EC           =    -25.726144381
Transforming the Hamiltonian                       ... done (   0.0 sec)
Diagonalizing the Hamiltonian                      ... done (   0.0 sec)
Back transforming the eigenvectors                 ... done (   0.0 sec)
Now organizing SCF variables                       ... done
                      ------------------
                      INITIAL GUESS DONE (   0.8 sec)
                      ------------------
-------------------
DFT GRID GENERATION
-------------------

General Integration Accuracy     IntAcc      ... 4.388
Radial Grid Type                 RadialGrid  ... OptM3 with GC (2021)
Angular Grid (max. ang.)         AngularGrid ... 4 (Lebedev-302)
Angular grid pruning method      GridPruning ... 4 (adaptive)
Weight generation scheme         WeightScheme... Becke
Basis function cutoff            BFCut       ... 1.0000e-11
Integration weight cutoff        WCut        ... 1.0000e-14
Angular grids for H and He will be reduced by one unit
Partially contracted basis set               ... off
Rotationally invariant grid construction     ... off

Total number of grid points                  ...    37410
Total number of batches                      ...      589
Average number of points per batch           ...       63
Average number of grid points per atom       ...     4676
Time for grid setup =    0.696 sec

--------------------
COSX GRID GENERATION
--------------------

GRIDX 1
-------
General Integration Accuracy     IntAcc      ... 3.816
Radial Grid Type                 RadialGrid  ... OptM3 with GC (2021)
Angular Grid (max. ang.)         AngularGrid ... 1 (Lebedev-50)
Angular grid pruning method      GridPruning ... 4 (adaptive)
Weight generation scheme         WeightScheme... Becke
Basis function cutoff            BFCut       ... 1.0000e-11
Integration weight cutoff        WCut        ... 1.0000e-14
Angular grids for H and He will be reduced by one unit
Partially contracted basis set               ... on
Rotationally invariant grid construction     ... off

Total number of grid points                  ...     4782
Total number of batches                      ...       79
Average number of points per batch           ...       60
Average number of grid points per atom       ...      598
UseSFitting                                  ... on

GRIDX 2
-------
General Integration Accuracy     IntAcc      ... 4.020
Radial Grid Type                 RadialGrid  ... OptM3 with GC (2021)
Angular Grid (max. ang.)         AngularGrid ... 2 (Lebedev-110)
Angular grid pruning method      GridPruning ... 4 (adaptive)
Weight generation scheme         WeightScheme... Becke
Basis function cutoff            BFCut       ... 1.0000e-11
Integration weight cutoff        WCut        ... 1.0000e-14
Angular grids for H and He will be reduced by one unit
Partially contracted basis set               ... on
Rotationally invariant grid construction     ... off

Total number of grid points                  ...    10541
Total number of batches                      ...      169
Average number of points per batch           ...       62
Average number of grid points per atom       ...     1318
UseSFitting                                  ... on

GRIDX 3
-------
General Integration Accuracy     IntAcc      ... 4.338
Radial Grid Type                 RadialGrid  ... OptM3 with GC (2021)
Angular Grid (max. ang.)         AngularGrid ... 3 (Lebedev-194)
Angular grid pruning method      GridPruning ... 4 (adaptive)
Weight generation scheme         WeightScheme... Becke
Basis function cutoff            BFCut       ... 1.0000e-11
Integration weight cutoff        WCut        ... 1.0000e-14
Angular grids for H and He will be reduced by one unit
Partially contracted basis set               ... on
Rotationally invariant grid construction     ... off

Total number of grid points                  ...    23317
Total number of batches                      ...      368
Average number of points per batch           ...       63
Average number of grid points per atom       ...     2915
UseSFitting                                  ... on

Time for X-Grid setup             =    2.557 sec

--------------
SCF ITERATIONS
--------------
ITER       Energy         Delta-E        Max-DP      RMS-DP      [F,P]     Damp
               ***  Starting incremental Fock matrix formation  ***
  0   -191.6077248210   0.000000000000 0.12741962  0.00827109  0.2527710 0.7000
  1   -191.6684957855  -0.060770964503 0.06433858  0.00487902  0.0881504 0.7000
                               ***Turning on DIIS***
  2   -191.6880420765  -0.019546290949 0.05694108  0.00601981  0.0302716 0.0000
  3   -191.7248911295  -0.036849053052 0.05334838  0.00379550  0.0424382 0.0000
  4   -191.7303487180  -0.005457588498 0.01101885  0.00112212  0.0212074 0.0000
                      *** Initiating the SOSCF procedure ***
                           *** Shutting down DIIS ***
                      *** Re-Reading the Fockian *** 
                      *** Removing any level shift *** 
ITER      Energy       Delta-E        Grad      Rot      Max-DP    RMS-DP
  5   -191.73149067  -0.0011419553  0.000751  0.000751  0.002648  0.000287
               *** Restarting incremental Fock matrix formation ***
  6   -191.73154396  -0.0000532916  0.000720  0.002193  0.001872  0.000198
  7   -191.73153705   0.0000069175  0.001115  0.001091  0.001338  0.000111
  8   -191.73154831  -0.0000112654  0.000091  0.000291  0.000297  0.000028
  9   -191.73154808   0.0000002290  0.000169  0.000258  0.000210  0.000020
 10   -191.73154840  -0.0000003206  0.000033  0.000099  0.000105  0.000010
 11   -191.73154839   0.0000000098  0.000030  0.000047  0.000058  0.000006
                  ***Gradient check signals convergence***
              ***Rediagonalizing the Fockian in SOSCF/NRSCF***

               *****************************************************
               *                     SUCCESS                       *
               *           SCF CONVERGED AFTER  12 CYCLES          *
               *****************************************************

Old exchange energy                            =     -5.014399694 Eh
New exchange energy                            =     -5.014406342 Eh
Exchange energy change after final integration =     -0.000006648 Eh
Total energy after final integration           =   -191.731555064 Eh
Final COS-X integration done in                =     0.810 sec

----------------
TOTAL SCF ENERGY
----------------

Total Energy       :         -191.73155506 Eh           -5217.28085 eV

Components:
Nuclear Repulsion  :          102.90581359 Eh            2800.20955 eV
Electronic Energy  :         -294.63736866 Eh           -8017.49040 eV
One Electron Energy:         -462.82960963 Eh          -12594.23396 eV
Two Electron Energy:          168.19224097 Eh            4576.74355 eV
Max COSX asymmetry :            0.00000052 Eh               0.00001 eV

Virial components:
Potential Energy   :         -382.49015835 Eh          -10408.08635 eV
Kinetic Energy     :          190.75860328 Eh            5190.80549 eV
Virial Ratio       :            2.00510043


DFT components:
N(Alpha)           :       14.999995839712 electrons
N(Beta)            :       14.999995839712 electrons
N(Total)           :       29.999991679425 electrons
E(X)               :      -19.964639939097 Eh       
E(C)               :       -1.182176493555 Eh       
E(XC)              :      -21.146816432652 Eh       
DFET-embed. en.    :        0.000000000000 Eh       

---------------
SCF CONVERGENCE
---------------

  Last Energy change         ...   -2.1666e-08  Tolerance :   1.0000e-08
  Last MAX-Density change    ...    2.2204e-15  Tolerance :   1.0000e-07
  Last RMS-Density change    ...    1.0538e-16  Tolerance :   5.0000e-09
  Last Orbital Gradient      ...    4.6745e-07  Tolerance :   1.0000e-05
  Last Orbital Rotation      ...    2.3095e-06  Tolerance :   1.0000e-05

             **** THE GBW FILE WAS UPDATED (acrolien.746.gbw) ****
             **** DENSITY acrolien.746.scfp WAS UPDATED ****
             **** ENERGY FILE WAS UPDATED (acrolien.746.en.tmp) ****
             **** THE GBW FILE WAS UPDATED (acrolien.746.gbw) ****
             **** DENSITY acrolien.746.scfp WAS UPDATED ****
----------------
ORBITAL ENERGIES
----------------

  NO   OCC          E(Eh)            E(eV) 
   0   2.0000     -19.142982      -520.9070 
   1   2.0000     -10.268387      -279.4170 
   2   2.0000     -10.228168      -278.3226 
   3   2.0000     -10.208387      -277.7843 
   4   2.0000      -1.050347       -28.5814 
   5   2.0000      -0.808638       -22.0041 
   6   2.0000      -0.648687       -17.6517 
   7   2.0000      -0.586087       -15.9482 
   8   2.0000      -0.487805       -13.2738 
   9   2.0000      -0.462742       -12.5918 
  10   2.0000      -0.418031       -11.3752 
  11   2.0000      -0.395183       -10.7535 
  12   2.0000      -0.386275       -10.5111 
  13   2.0000      -0.289300        -7.8723 
  14   2.0000      -0.252808        -6.8793 
  15   0.0000      -0.066138        -1.7997 
  16   0.0000       0.038814         1.0562 
  17   0.0000       0.089088         2.4242 
  18   0.0000       0.112274         3.0551 
  19   0.0000       0.162015         4.4087 
  20   0.0000       0.179849         4.8939 
  21   0.0000       0.270183         7.3521 
  22   0.0000       0.299191         8.1414 
  23   0.0000       0.347327         9.4513 
  24   0.0000       0.512062        13.9339 
  25   0.0000       0.541007        14.7216 
  26   0.0000       0.584885        15.9155 
  27   0.0000       0.593860        16.1598 
  28   0.0000       0.633020        17.2253 
  29   0.0000       0.653353        17.7786 
  30   0.0000       0.686934        18.6924 
  31   0.0000       0.692756        18.8508 
  32   0.0000       0.803186        21.8558 
  33   0.0000       0.852304        23.1924 
  34   0.0000       0.888309        24.1721 
  35   0.0000       0.919751        25.0277 
  36   0.0000       0.943839        25.6832 
  37   0.0000       0.967565        26.3288 
  38   0.0000       1.006598        27.3909 
  39   0.0000       1.113835        30.3090 
  40   0.0000       1.128805        30.7163 
  41   0.0000       1.167547        31.7706 
  42   0.0000       1.271991        34.6126 
  43   0.0000       1.720296        46.8116 

                    ********************************
                    * MULLIKEN POPULATION ANALYSIS *
                    ********************************

-----------------------
MULLIKEN ATOMIC CHARGES
-----------------------
   0 C :    0.173623
   1 O :   -0.391756
   2 C :   -0.079051
   3 C :   -0.288777
   4 H :    0.113445
   5 H :    0.165425
   6 H :    0.152345
   7 H :    0.154745
Sum of atomic charges:   -0.0000000

--------------------------------
MULLIKEN REDUCED ORBITAL CHARGES
--------------------------------
  0 C s       :     3.159851  s :     3.159851
      pz      :     0.913306  p :     2.666525
      px      :     0.842715
      py      :     0.910504
  1 O s       :     3.955838  s :     3.955838
      pz      :     1.508420  p :     4.435919
      px      :     1.397662
      py      :     1.529837
  2 C s       :     3.209961  s :     3.209961
      pz      :     0.982065  p :     2.869090
      px      :     0.910640
      py      :     0.976385
  3 C s       :     3.326330  s :     3.326330
      pz      :     0.963068  p :     2.962447
      px      :     1.007821
      py      :     0.991558
  4 H s       :     0.886555  s :     0.886555
  5 H s       :     0.834575  s :     0.834575
  6 H s       :     0.847655  s :     0.847655
  7 H s       :     0.845255  s :     0.845255


                     *******************************
                     * LOEWDIN POPULATION ANALYSIS *
                     *******************************

----------------------
LOEWDIN ATOMIC CHARGES
----------------------
   0 C :    0.104380
   1 O :   -0.251402
   2 C :   -0.157179
   3 C :   -0.176543
   4 H :    0.083315
   5 H :    0.136280
   6 H :    0.127492
   7 H :    0.133658

-------------------------------
LOEWDIN REDUCED ORBITAL CHARGES
-------------------------------
  0 C s       :     2.964722  s :     2.964722
      pz      :     1.013406  p :     2.930898
      px      :     0.974270
      py      :     0.943222
  1 O s       :     3.647769  s :     3.647769
      pz      :     1.578182  p :     4.603633
      px      :     1.475659
      py      :     1.549791
  2 C s       :     2.981281  s :     2.981281
      pz      :     1.036140  p :     3.175899
      px      :     1.083157
      py      :     1.056601
  3 C s       :     3.030204  s :     3.030204
      pz      :     1.006517  p :     3.146339
      px      :     1.100906
      py      :     1.038917
  4 H s       :     0.916685  s :     0.916685
  5 H s       :     0.863720  s :     0.863720
  6 H s       :     0.872508  s :     0.872508
  7 H s       :     0.866342  s :     0.866342


                      *****************************
                      * MAYER POPULATION ANALYSIS *
                      *****************************

  NA   - Mulliken gross atomic population
  ZA   - Total nuclear charge
  QA   - Mulliken gross atomic charge
  VA   - Mayer's total valence
  BVA  - Mayer's bonded valence
  FA   - Mayer's free valence

  ATOM       NA         ZA         QA         VA         BVA        FA
  0 C      5.8264     6.0000     0.1736     3.7853     3.7853    -0.0000
  1 O      8.3918     8.0000    -0.3918     1.9839     1.9839     0.0000
  2 C      6.0791     6.0000    -0.0791     3.7228     3.7228    -0.0000
  3 C      6.2888     6.0000    -0.2888     3.8289     3.8289    -0.0000
  4 H      0.8866     1.0000     0.1134     0.9213     0.9213    -0.0000
  5 H      0.8346     1.0000     0.1654     0.9395     0.9395     0.0000
  6 H      0.8477     1.0000     0.1523     0.9457     0.9457     0.0000
  7 H      0.8453     1.0000     0.1547     0.9498     0.9498    -0.0000

  Mayer bond orders larger than 0.100000
B(  0-C ,  1-O ) :   1.8310 B(  0-C ,  2-C ) :   1.0125 B(  0-C ,  4-H ) :   0.8987 
B(  1-O ,  3-C ) :   0.1023 B(  2-C ,  3-C ) :   1.8148 B(  2-C ,  5-H ) :   0.9285 
B(  3-C ,  6-H ) :   0.9417 B(  3-C ,  7-H ) :   0.9410 

-------
TIMINGS
-------

Total SCF time: 0 days 0 hours 0 min 50 sec 

Total time                  ....      50.510 sec
Sum of individual times     ....      40.928 sec  ( 81.0%)

Fock matrix formation       ....      35.092 sec  ( 69.5%)
  Split-RI-J                ....       0.577 sec  (  1.6% of F)
  Chain of spheres X        ....       4.443 sec  ( 12.7% of F)
  XC integration            ....      10.000 sec  ( 28.5% of F)
    Basis function eval.    ....       0.941 sec  (  9.4% of XC)
    Density eval.           ....       0.478 sec  (  4.8% of XC)
    XC-Functional eval.     ....       0.710 sec  (  7.1% of XC)
    XC-Potential eval.      ....       0.232 sec  (  2.3% of XC)
Diagonalization             ....       0.003 sec  (  0.0%)
Density matrix formation    ....       0.000 sec  (  0.0%)
Population analysis         ....       1.763 sec  (  3.5%)
Initial guess               ....       0.760 sec  (  1.5%)
Orbital Transformation      ....       0.000 sec  (  0.0%)
Orbital Orthonormalization  ....       0.000 sec  (  0.0%)
DIIS solution               ....       0.002 sec  (  0.0%)
SOSCF solution              ....       0.002 sec  (  0.0%)
Grid generation             ....       3.305 sec  (  6.5%)

Maximum memory used throughout the entire SCF-calculation: 46.7 MB
------------------------------------------------------------------------------
                        ORCA TD-DFT/TDA CALCULATION
------------------------------------------------------------------------------

Input orbitals are from        ... acrolien.746.gbw
CI-vector output               ... acrolien.746.cis
Tamm-Dancoff approximation     ... operative
CIS-Integral strategy          ... AO-integrals
Integral handling              ... AO integral Direct
Max. core memory used          ... 512 MB
Reference state                ... RHF
Generation of triplets         ... off
Follow IRoot                   ... off
Number of operators            ... 1
Orbital ranges used for CIS calculation:
 Operator 0:  Orbitals   4... 14  to  15... 43
XAS localization array:
 Operator 0:  Orbitals  -1... -1

-------------------
XC-INTEGRATION GRID
-------------------

General Integration Accuracy     IntAcc      ... 3.467
Radial Grid Type                 RadialGrid  ... OptM3 with GC (2021)
Angular Grid (max. ang.)         AngularGrid ... 1 (Lebedev-50)
Angular grid pruning method      GridPruning ... 4 (adaptive)
Weight generation scheme         WeightScheme... Becke
Basis function cutoff            BFCut       ... 1.0000e-11
Integration weight cutoff        WCut        ... 1.0000e-14
Angular grids for H and He will be reduced by one unit
Partially contracted basis set               ... off
Rotationally invariant grid construction     ... off

Total number of grid points                  ...     5478
Total number of batches                      ...       90
Average number of points per batch           ...       60
Average number of grid points per atom       ...      685

---------------------
COSX-INTEGRATION GRID
---------------------

General Integration Accuracy     IntAcc      ... 3.067
Radial Grid Type                 RadialGrid  ... OptM3 with GC (2021)
Angular Grid (max. ang.)         AngularGrid ... 1 (Lebedev-50)
Angular grid pruning method      GridPruning ... 4 (adaptive)
Weight generation scheme         WeightScheme... Becke
Basis function cutoff            BFCut       ... 1.0000e-11
Integration weight cutoff        WCut        ... 1.0000e-14
Angular grids for H and He will be reduced by one unit
Partially contracted basis set               ... on
Rotationally invariant grid construction     ... off

Total number of grid points                  ...     2501
Total number of batches                      ...       45
Average number of points per batch           ...       55
Average number of grid points per atom       ...      313

---------------
TD-DFT XC SETUP
---------------

DFT calculation                         ... on
Name of the grid file                   ... acrolien.746.grid_cis.tmp
Exchange functional (TD-DFT)            ... B88
   X-Alpha parameter    XAlpha (TD-DFT) ...  0.666667
   Becke's b parameter  XBeta (TD-DFT)  ...  0.004200
Correlation functional (TD-DFT)         ... LYP
 LDA part of GGA corr.  LDAOpt (TD-DFT) ... VWN-5
Hybrid DFT                              ... on
   Exchange mixing (TD-DFT)             ...  0.200
   GGA exch. scaling (TD-DFT)           ...  0.720
   GGA corr. scaling (TD-DFT)           ...  0.810

Building densities             ... done
Calculating rho(r) on the grid ... done
Building xc-kernel on the grid ... done
                    *** TD-DFT CALCULATION INITIALIZED ***

------------------------
DAVIDSON-DIAGONALIZATION
------------------------

Dimension of the eigenvalue problem            ...    319
Number of roots to be determined               ...      1
Maximum size of the expansion space            ...     10
Maximum number of iterations                   ...    100
Convergence tolerance for the residual         ...    2.500e-07
Convergence tolerance for the energies         ...    2.500e-07
Orthogonality tolerance                        ...    1.000e-14
Level Shift                                    ...    0.000e+00
Constructing the preconditioner                ... o.k.
Building the initial guess                     ... o.k.
Number of trial vectors determined             ...     10


                       ****Iteration    0****

   Memory handling for direct AO based CIS:
   Memory per vector needed      ...     1 MB
   Memory needed                 ...     0 MB
   Memory available              ...   512 MB
   Number of vectors per batch   ...   512
   Number of batches             ...     1
   Time for densities:            0.000
   Time for RI-J (Direct):        0.043
   Time for K (COSX):             0.573
   Time for XC-Integration:       0.039
   Time for Sigma-Completion:     0.000
   Size of expansion space: 3
   Lowest Energy          :     0.127844071097
   Maximum Energy change  :     0.127844071097 (vector 0)
   Maximum residual norm  :     0.000845019780

                       ****Iteration    1****
   Time for densities:            0.000
   Time for RI-J (Direct):        0.035
   Time for K (COSX):             0.865
   Time for XC-Integration:       0.023
   Time for Sigma-Completion:     0.000
   Size of expansion space: 4
   Lowest Energy          :     0.126795631164
   Maximum Energy change  :     0.001048439933 (vector 0)
   Maximum residual norm  :     0.000226263791

                       ****Iteration    2****
   Time for densities:            0.000
   Time for RI-J (Direct):        0.034
   Time for K (COSX):             0.288
   Time for XC-Integration:       0.023
   Time for Sigma-Completion:     0.000
   Size of expansion space: 5
   Lowest Energy          :     0.126535515977
   Maximum Energy change  :     0.000260115187 (vector 0)
   Maximum residual norm  :     0.000005264902

                       ****Iteration    3****
   Time for densities:            0.000
   Time for RI-J (Direct):        0.034
   Time for K (COSX):             0.415
   Time for XC-Integration:       0.023
   Time for Sigma-Completion:     0.000
   Size of expansion space: 6
   Lowest Energy          :     0.126528971526
   Maximum Energy change  :     0.000006544451 (vector 0)
   Maximum residual norm  :     0.000000321582

                       ****Iteration    4****
   Time for densities:            0.000
   Time for RI-J (Direct):        0.034
   Time for K (COSX):             0.107
   Time for XC-Integration:       0.023
   Time for Sigma-Completion:     0.000
   Size of expansion space: 7
   Lowest Energy          :     0.126528582233
   Maximum Energy change  :     0.000000389292 (vector 0)
   Maximum residual norm  :     0.000000013589

      *** CONVERGENCE OF RESIDUAL NORM REACHED ***

Storing the converged CI vectors               ... acrolien.746.cis1

                 *** DAVIDSON DONE ***

Total time for solving the CIS problem:     3.322sec

------------------------------------
TD-DFT/TDA EXCITED STATES (SINGLETS)
------------------------------------

the weight of the individual excitations are printed if larger than 1.0e-02

STATE  1:  E=   0.126529 au      3.443 eV    27769.8 cm**-1 <S**2> =   0.000000
    14a ->  15a  :     0.971563 (c=  0.98567895)
    14a ->  16a  :     0.022017 (c=  0.14838065)


-----------------------------
TD-DFT/TDA-EXCITATION SPECTRA
-----------------------------

Center of mass = ( -1.0571, -0.1763,  0.3677)
Calculating the Dipole integrals                  ... done
Transforming integrals                            ... done
Calculating the Linear Momentum integrals         ... done
Transforming integrals                            ... done
Calculating angular momentum integrals            ... done
Transforming integrals                            ... done

-----------------------------------------------------------------------------
         ABSORPTION SPECTRUM VIA TRANSITION ELECTRIC DIPOLE MOMENTS
-----------------------------------------------------------------------------
State   Energy    Wavelength  fosc         T2        TX        TY        TZ  
        (cm-1)      (nm)                 (au**2)    (au)      (au)      (au) 
-----------------------------------------------------------------------------
   1   27769.8    360.1   0.000346324   0.00411   0.06355   0.00763  -0.00304

-----------------------------------------------------------------------------
         ABSORPTION SPECTRUM VIA TRANSITION VELOCITY DIPOLE MOMENTS
-----------------------------------------------------------------------------
State   Energy    Wavelength   fosc        P2         PX        PY        PZ  
        (cm-1)      (nm)                 (au**2)     (au)      (au)      (au) 
-----------------------------------------------------------------------------
   1   27769.8    360.1   0.000899084   0.00017   0.00872   0.00215  -0.00949

-------------------------------------------------------------------
                             CD SPECTRUM
-------------------------------------------------------------------
State  Energy     Wavelength     R         MX        MY        MZ   
       (cm-1)       (nm)     (1e40*cgs)   (au)      (au)      (au)  
-------------------------------------------------------------------
   1   27769.8    360.1    -10.98962  -0.34573  -0.08888   0.21797

-------------------------------------------------------------------
         CD SPECTRUM VIA TRANSITION VELOCITY DIPOLE MOMENTS        
-------------------------------------------------------------------
State  Energy     Wavelength     R         MX        MY        MZ   
       (cm-1)       (nm)     (1e40*cgs)   (au)      (au)      (au)  
-------------------------------------------------------------------
   1   27769.8    360.1    -19.64822  -0.34573  -0.08888   0.21797

Total run time:        5.911 sec

           *** ORCA-CIS/TD-DFT FINISHED WITHOUT ERROR ***

Maximum memory used throughout the entire CIS-calculation: 42.9 MB

-----------------------
CIS/TD-DFT TOTAL ENERGY
-----------------------

    E(SCF)  =   -191.731555064 Eh
    DE(CIS) =      0.126528582 Eh (Root  1)
    ----------------------------- ---------
    E(tot)  =   -191.605026482 Eh


-------------------------   --------------------
FINAL SINGLE POINT ENERGY      -191.605026482180
-------------------------   --------------------


                            ***************************************
                            *     ORCA property calculations      *
                            ***************************************

                                    ---------------------
                                    Active property flags
                                    ---------------------
   (+) Dipole Moment


------------------------------------------------------------------------------
                       ORCA ELECTRIC PROPERTIES CALCULATION
------------------------------------------------------------------------------

Dipole Moment Calculation                       ... on
Quadrupole Moment Calculation                   ... off
Polarizability Calculation                      ... off
GBWName                                         ... acrolien.746.gbw
Electron density                                ... acrolien.746.scfp
The origin for moment calculation is the CENTER OF MASS  = (-1.057075, -0.176286  0.367698)

-------------
DIPOLE MOMENT
-------------
                                X             Y             Z
Electronic contribution:     -2.81058      -0.40460       0.84534
Nuclear contribution   :      3.96182       0.62776      -1.43626
                        -----------------------------------------
Total Dipole Moment    :      1.15124       0.22316      -0.59091
                        -----------------------------------------
Magnitude (a.u.)       :      1.31314
Magnitude (Debye)      :      3.33774



--------------------
Rotational spectrum 
--------------------
 
Rotational constants in cm-1:     1.419871     0.158170     0.145843 
Rotational constants in MHz : 42566.656894  4741.807199  4372.253699 

 Dipole components along the rotational axes: 
x,y,z [a.u.] :    -1.269806    -0.259044     0.211719 
x,y,z [Debye]:    -3.227591    -0.658437     0.538148 

 

Timings for individual modules:

Sum of individual times         ...       59.663 sec (=   0.994 min)
GTO integral calculation        ...        1.672 sec (=   0.028 min)   2.8 %
SCF iterations                  ...       51.653 sec (=   0.861 min)  86.6 %
CIS module                      ...        6.339 sec (=   0.106 min)  10.6 %
                             ****ORCA TERMINATED NORMALLY****
TOTAL RUN TIME: 0 days 0 hours 1 minutes 1 seconds 351 msec
