
                                 *****************
                                 * O   R   C   A *
                                 *****************

                                            #,                                       
                                            ###                                      
                                            ####                                     
                                            #####                                    
                                            ######                                   
                                           ########,                                 
                                     ,,################,,,,,                         
                               ,,#################################,,                 
                          ,,##########################################,,             
                       ,#########################################, ''#####,          
                    ,#############################################,,   '####,        
                  ,##################################################,,,,####,       
                ,###########''''           ''''###############################       
              ,#####''   ,,,,##########,,,,          '''####'''          '####       
            ,##' ,,,,###########################,,,                        '##       
           ' ,,###''''                  '''############,,,                           
         ,,##''                                '''############,,,,        ,,,,,,###''
      ,#''                                            '''#######################'''  
     '                                                          ''''####''''         
             ,#######,   #######,   ,#######,      ##                                
            ,#'     '#,  ##    ##  ,#'     '#,    #''#        ######   ,####,        
            ##       ##  ##   ,#'  ##            #'  '#       #        #'  '#        
            ##       ##  #######   ##           ,######,      #####,   #    #        
            '#,     ,#'  ##    ##  '#,     ,#' ,#      #,         ##   #,  ,#        
             '#######'   ##     ##  '#######'  #'      '#     #####' # '####'        



                  #######################################################
                  #                        -***-                        #
                  #          Department of theory and spectroscopy      #
                  #    Directorship and core code : Frank Neese         #
                  #        Max Planck Institute fuer Kohlenforschung    #
                  #                Kaiser Wilhelm Platz 1               #
                  #                 D-45470 Muelheim/Ruhr               #
                  #                      Germany                        #
                  #                                                     #
                  #                  All rights reserved                #
                  #                        -***-                        #
                  #######################################################


                         Program Version 5.0.3 -  RELEASE  -


 With contributions from (in alphabetic order):
   Daniel Aravena         : Magnetic Suceptibility
   Michael Atanasov       : Ab Initio Ligand Field Theory (pilot matlab implementation)
   Alexander A. Auer      : GIAO ZORA, VPT2 properties, NMR spectrum
   Ute Becker             : Parallelization
   Giovanni Bistoni       : ED, misc. LED, open-shell LED, HFLD
   Martin Brehm           : Molecular dynamics
   Dmytro Bykov           : SCF Hessian
   Vijay G. Chilkuri      : MRCI spin determinant printing, contributions to CSF-ICE
   Dipayan Datta          : RHF DLPNO-CCSD density
   Achintya Kumar Dutta   : EOM-CC, STEOM-CC
   Dmitry Ganyushin       : Spin-Orbit,Spin-Spin,Magnetic field MRCI
   Miquel Garcia          : C-PCM and meta-GGA Hessian, CC/C-PCM, Gaussian charge scheme
   Yang Guo               : DLPNO-NEVPT2, F12-NEVPT2, CIM, IAO-localization
   Andreas Hansen         : Spin unrestricted coupled pair/coupled cluster methods
   Benjamin Helmich-Paris : MC-RPA, TRAH-SCF, COSX integrals
   Lee Huntington         : MR-EOM, pCC
   Robert Izsak           : Overlap fitted RIJCOSX, COSX-SCS-MP3, EOM
   Marcus Kettner         : VPT2
   Christian Kollmar      : KDIIS, OOCD, Brueckner-CCSD(T), CCSD density, CASPT2, CASPT2-K
   Simone Kossmann        : Meta GGA functionals, TD-DFT gradient, OOMP2, MP2 Hessian
   Martin Krupicka        : Initial AUTO-CI
   Lucas Lang             : DCDCAS
   Marvin Lechner         : AUTO-CI (C++ implementation), FIC-MRCC
   Dagmar Lenk            : GEPOL surface, SMD
   Dimitrios Liakos       : Extrapolation schemes; Compound Job, initial MDCI parallelization
   Dimitrios Manganas     : Further ROCIS development; embedding schemes
   Dimitrios Pantazis     : SARC Basis sets
   Anastasios Papadopoulos: AUTO-CI, single reference methods and gradients
   Taras Petrenko         : DFT Hessian,TD-DFT gradient, ASA, ECA, R-Raman, ABS, FL, XAS/XES, NRVS
   Peter Pinski           : DLPNO-MP2, DLPNO-MP2 Gradient
   Christoph Reimann      : Effective Core Potentials
   Marius Retegan         : Local ZFS, SOC
   Christoph Riplinger    : Optimizer, TS searches, QM/MM, DLPNO-CCSD(T), (RO)-DLPNO pert. Triples
   Tobias Risthaus        : Range-separated hybrids, TD-DFT gradient, RPA, STAB
   Michael Roemelt        : Original ROCIS implementation
   Masaaki Saitow         : Open-shell DLPNO-CCSD energy and density
   Barbara Sandhoefer     : DKH picture change effects
   Avijit Sen             : IP-ROCIS
   Kantharuban Sivalingam : CASSCF convergence, NEVPT2, FIC-MRCI
   Bernardo de Souza      : ESD, SOC TD-DFT
   Georgi Stoychev        : AutoAux, RI-MP2 NMR, DLPNO-MP2 response
   Willem Van den Heuvel  : Paramagnetic NMR
   Boris Wezisla          : Elementary symmetry handling
   Frank Wennmohs         : Technical directorship


 We gratefully acknowledge several colleagues who have allowed us to
 interface, adapt or use parts of their codes:
   Stefan Grimme, W. Hujo, H. Kruse, P. Pracht,  : VdW corrections, initial TS optimization,
                  C. Bannwarth, S. Ehlert          DFT functionals, gCP, sTDA/sTD-DF
   Ed Valeev, F. Pavosevic, A. Kumar             : LibInt (2-el integral package), F12 methods
   Garnet Chan, S. Sharma, J. Yang, R. Olivares  : DMRG
   Ulf Ekstrom                                   : XCFun DFT Library
   Mihaly Kallay                                 : mrcc  (arbitrary order and MRCC methods)
   Jiri Pittner, Ondrej Demel                    : Mk-CCSD
   Frank Weinhold                                : gennbo (NPA and NBO analysis)
   Christopher J. Cramer and Donald G. Truhlar   : smd solvation model
   Lars Goerigk                                  : TD-DFT with DH, B97 family of functionals
   V. Asgeirsson, H. Jonsson                     : NEB implementation
   FAccTs GmbH                                   : IRC, NEB, NEB-TS, DLPNO-Multilevel, CI-OPT
                                                   MM, QMMM, 2- and 3-layer-ONIOM, Crystal-QMMM,
                                                   LR-CPCM, SF, NACMEs, symmetry and pop. for TD-DFT,
                                                   nearIR, NL-DFT gradient (VV10), updates on ESD,
                                                   ML-optimized integration grids
   S Lehtola, MJT Oliveira, MAL Marques          : LibXC Library
   Liviu Ungur et al                             : ANISO software


 Your calculation uses the libint2 library for the computation of 2-el integrals
 For citations please refer to: http://libint.valeyev.net

 Your ORCA version has been built with support for libXC version: 5.1.0
 For citations please refer to: https://tddft.org/programs/libxc/

 This ORCA versions uses:
   CBLAS   interface :  Fast vector & matrix operations
   LAPACKE interface :  Fast linear algebra routines
   SCALAPACK package :  Parallel linear algebra routines
   Shared memory     :  Shared parallel matrices
   BLAS/LAPACK       :  OpenBLAS 0.3.15  USE64BITINT DYNAMIC_ARCH NO_AFFINITY Haswell SINGLE_THREADED
        Core in use  :  Haswell
   Copyright (c) 2011-2014, The OpenBLAS Project


================================================================================

----- Orbital basis set information -----
Your calculation utilizes the basis: 6-31G
   H-He, Li-Ne : W. J. Hehre, R. Ditchfield and J.A. Pople, J. Chem. Phys. 56, 2257 (1972).
                 Note: He and Ne are unpublished basis sets taken from the Gaussian program.
                 Note: Li and B from J. D. Dill and J. A. Pople, J. Chem. Phys. 62, 2921 (1975).
   Na - Ar     : M. M. Francl, W. J. Pietro, W. J. Hehre, J. S. Binkley, M. S. Gordon, 
                 D. J. DeFrees and J. A. Pople, J. Chem. Phys. 77, 3654 (1982).
   K - Zn      : V. A. Rassolov, J. A. Pople, M. A. Ratner, and T. L. Windus, J. Chem. Phys. 109, 1223 (1998).

----- AuxJ basis set information -----
Your calculation utilizes the auxiliary basis: def2/J
   F. Weigend, Phys. Chem. Chem. Phys. 8, 1057 (2006).

================================================================================
                                        WARNINGS
                       Please study these warnings very carefully!
================================================================================

INFO   : Checking CIS options ...

INFO   : the flag for use of the SHARK integral package has been found!

================================================================================
                                       INPUT FILE
================================================================================
NAME = acrolien.798.com
|  1> ! B3LYP 6-31G
|  2> !TightSCF
|  3> %scf
|  4>  ConvForced true
|  5>  convergence tight
|  6>  MaxIter 500
|  7> end
|  8>  
|  9> %tddft 
| 10>  nroots 1
| 11> end
| 12> 
| 13> # 	30022
| 14> * xyz 0 1
| 15> 		C   -0.610928  -0.461588  -0.025649
| 16> 		O   -0.534830  -1.597527   0.006263
| 17> 		C    0.611095   0.474062   0.047218
| 18> 		C    1.834125  -0.177598  -0.011236
| 19> 		H   -1.519839   0.054878  -0.004270
| 20> 		H    0.491446   1.436310  -0.162571
| 21> 		H    1.781080  -1.297654  -0.042326
| 22> 		H    2.814229   0.358563  -0.020497
| 23> *
| 24> 
| 25>                          ****END OF INPUT****
================================================================================

                       ****************************
                       * Single Point Calculation *
                       ****************************

---------------------------------
CARTESIAN COORDINATES (ANGSTROEM)
---------------------------------
  C     -0.610928   -0.461588   -0.025649
  O     -0.534830   -1.597527    0.006263
  C      0.611095    0.474062    0.047218
  C      1.834125   -0.177598   -0.011236
  H     -1.519839    0.054878   -0.004270
  H      0.491446    1.436310   -0.162571
  H      1.781080   -1.297654   -0.042326
  H      2.814229    0.358563   -0.020497

----------------------------
CARTESIAN COORDINATES (A.U.)
----------------------------
  NO LB      ZA    FRAG     MASS         X           Y           Z
   0 C     6.0000    0    12.011   -1.154487   -0.872275   -0.048470
   1 O     8.0000    0    15.999   -1.010682   -3.018889    0.011835
   2 C     6.0000    0    12.011    1.154802    0.895847    0.089229
   3 C     6.0000    0    12.011    3.465994   -0.335612   -0.021233
   4 H     1.0000    0     1.008   -2.872079    0.103704   -0.008069
   5 H     1.0000    0     1.008    0.928698    2.714233   -0.307215
   6 H     1.0000    0     1.008    3.365753   -2.452211   -0.079985
   7 H     1.0000    0     1.008    5.318122    0.677586   -0.038734

--------------------------------
INTERNAL COORDINATES (ANGSTROEM)
--------------------------------
 C      0   0   0     0.000000000000     0.00000000     0.00000000
 O      1   0   0     1.138932260088     0.00000000     0.00000000
 C      1   2   0     1.540808467889   123.45855659     0.00000000
 C      3   1   2     1.387040016227   114.33272827     7.60429447
 H      1   2   3     1.045616276039   123.37683993   186.77669852
 H      3   1   2     0.992093000291   118.90296019   168.17889579
 H      4   3   1     1.121742306977   115.37785003   356.54005413
 H      4   3   1     1.117210022716   123.25883599   176.94388920

---------------------------
INTERNAL COORDINATES (A.U.)
---------------------------
 C      0   0   0     0.000000000000     0.00000000     0.00000000
 O      1   0   0     2.152270056654     0.00000000     0.00000000
 C      1   2   0     2.911706029137   123.45855659     0.00000000
 C      3   1   2     2.621125767459   114.33272827     7.60429447
 H      1   2   3     1.975928402885   123.37683993   186.77669852
 H      3   1   2     1.874784069930   118.90296019   168.17889579
 H      4   3   1     2.119785753019   115.37785003   356.54005413
 H      4   3   1     2.111220977006   123.25883599   176.94388920

---------------------
BASIS SET INFORMATION
---------------------
There are 3 groups of distinct atoms

 Group   1 Type C   : 10s4p contracted to 3s2p pattern {631/31}
 Group   2 Type O   : 10s4p contracted to 3s2p pattern {631/31}
 Group   3 Type H   : 4s contracted to 2s pattern {31}

Atom   0C    basis set group =>   1
Atom   1O    basis set group =>   2
Atom   2C    basis set group =>   1
Atom   3C    basis set group =>   1
Atom   4H    basis set group =>   3
Atom   5H    basis set group =>   3
Atom   6H    basis set group =>   3
Atom   7H    basis set group =>   3
---------------------------------
AUXILIARY/J BASIS SET INFORMATION
---------------------------------
There are 3 groups of distinct atoms

 Group   1 Type C   : 12s5p4d2f1g contracted to 6s4p3d1f1g pattern {711111/2111/211/2/1}
 Group   2 Type O   : 12s5p4d2f1g contracted to 6s4p3d1f1g pattern {711111/2111/211/2/1}
 Group   3 Type H   : 5s2p1d contracted to 3s1p1d pattern {311/2/1}

Atom   0C    basis set group =>   1
Atom   1O    basis set group =>   2
Atom   2C    basis set group =>   1
Atom   3C    basis set group =>   1
Atom   4H    basis set group =>   3
Atom   5H    basis set group =>   3
Atom   6H    basis set group =>   3
Atom   7H    basis set group =>   3
------------------------------------------------------------------------------
                           ORCA GTO INTEGRAL CALCULATION
                           -- RI-GTO INTEGRALS CHOSEN --
------------------------------------------------------------------------------
------------------------------------------------------------------------------
                   ___                                                        
                  /   \      - P O W E R E D   B Y -                         
                 /     \                                                     
                 |  |  |   _    _      __       _____    __    __             
                 |  |  |  | |  | |    /  \     |  _  \  |  |  /  |          
                  \  \/   | |  | |   /    \    | | | |  |  | /  /          
                 / \  \   | |__| |  /  /\  \   | |_| |  |  |/  /          
                |  |  |   |  __  | /  /__\  \  |    /   |      \           
                |  |  |   | |  | | |   __   |  |    \   |  |\   \          
                \     /   | |  | | |  |  |  |  | |\  \  |  | \   \       
                 \___/    |_|  |_| |__|  |__|  |_| \__\ |__|  \__/        
                                                                              
                      - O R C A' S   B I G   F R I E N D -                    
                                      &                                       
                       - I N T E G R A L  F E E D E R -                       
                                                                              
 v1 FN, 2020, v2 2021                                                         
------------------------------------------------------------------------------


Reading SHARK input file acrolien.798.SHARKINP.tmp ... ok
----------------------
SHARK INTEGRAL PACKAGE
----------------------

Number of atoms                             ...      8
Number of basis functions                   ...     44
Number of shells                            ...     28
Maximum angular momentum                    ...      1
Integral batch strategy                     ... SHARK/LIBINT Hybrid
RI-J (if used) integral strategy            ... SPLIT-RIJ (Revised 2003 algorithm where possible)
Printlevel                                  ...      1
Contraction scheme used                     ... SEGMENTED contraction
Coulomb Range Separation                    ... NOT USED
Exchange Range Separation                   ... NOT USED
Finite Nucleus Model                        ... NOT USED
Auxiliary Coulomb fitting basis             ... AVAILABLE
   # of basis functions in Aux-J            ...    240
   # of shells in Aux-J                     ...     80
   Maximum angular momentum in Aux-J        ...      4
Auxiliary J/K fitting basis                 ... NOT available
Auxiliary Correlation fitting basis         ... NOT available
Auxiliary 'external' fitting basis          ... NOT available
Integral threshold                          ...     2.500000e-11
Primitive cut-off                           ...     2.500000e-12
Primitive pair pre-selection threshold      ...     2.500000e-12

Calculating pre-screening integrals         ... done (  0.0 sec) Dimension = 28
Organizing shell pair data                  ... done (  0.1 sec)
Shell pair information
Total number of shell pairs                 ...       406
Shell pairs after pre-screening             ...       402
Total number of primitive shell pairs       ...      2724
Primitive shell pairs kept                  ...      2024
          la=0 lb=0:    206 shell pairs
          la=1 lb=0:    160 shell pairs
          la=1 lb=1:     36 shell pairs

Calculating one electron integrals          ... done (  0.0 sec)
Calculating RI/J V-Matrix + Cholesky decomp.... done (  0.1 sec)
Calculating Nuclear repulsion               ... done (  0.0 sec) ENN=    105.981976458065 Eh

SHARK setup successfully completed in   1.0 seconds

Maximum memory used throughout the entire GTOINT-calculation: 8.3 MB
-------------------------------------------------------------------------------
                                 ORCA SCF
-------------------------------------------------------------------------------

------------
SCF SETTINGS
------------
Hamiltonian:
 Density Functional     Method          .... DFT(GTOs)
 Exchange Functional    Exchange        .... B88
   X-Alpha parameter    XAlpha          ....  0.666667
   Becke's b parameter  XBeta           ....  0.004200
 Correlation Functional Correlation     .... LYP
 LDA part of GGA corr.  LDAOpt          .... VWN-5
 Gradients option       PostSCFGGA      .... off
 Hybrid DFT is turned on
   Fraction HF Exchange ScalHFX         ....  0.200000
   Scaling of DF-GGA-X  ScalDFX         ....  0.720000
   Scaling of DF-GGA-C  ScalDFC         ....  0.810000
   Scaling of DF-LDA-C  ScalLDAC        ....  1.000000
   Perturbative correction              ....  0.000000
   Density functional embedding theory  .... OFF
   NL short-range parameter             ....  4.800000
 RI-approximation to the Coulomb term is turned on
   Number of AuxJ basis functions       .... 240
   RIJ-COSX (HFX calculated with COS-X)).... on


General Settings:
 Integral files         IntName         .... acrolien.798
 Hartree-Fock type      HFTyp           .... RHF
 Total Charge           Charge          ....    0
 Multiplicity           Mult            ....    1
 Number of Electrons    NEL             ....   30
 Basis Dimension        Dim             ....   44
 Nuclear Repulsion      ENuc            ....    105.9819764581 Eh

Convergence Acceleration:
 DIIS                   CNVDIIS         .... on
   Start iteration      DIISMaxIt       ....    12
   Startup error        DIISStart       ....  0.200000
   # of expansion vecs  DIISMaxEq       ....     5
   Bias factor          DIISBfac        ....   1.050
   Max. coefficient     DIISMaxC        ....  10.000
 Trust-Rad. Augm. Hess. CNVTRAH         .... auto
   Auto Start mean grad. ratio tolernc. ....  1.125000
   Auto Start start iteration           ....    20
   Auto Start num. interpolation iter.  ....    10
   Max. Number of Micro iterations      ....    16
   Max. Number of Macro iterations      .... Maxiter - #DIIS iter
   Number of Davidson start vectors     ....     2
   Converg. threshold I  (grad. norm)   ....   1.000e-05
   Converg. threshold II (energy diff.) ....   1.000e-08
   Grad. Scal. Fac. for Micro threshold ....   0.100
   Minimum threshold for Micro iter.    ....   0.010
   NR start threshold (gradient norm)   ....   0.001
   Initial trust radius                 ....   0.400
   Minimum AH scaling param. (alpha)    ....   1.000
   Maximum AH scaling param. (alpha)    .... 1000.000
   Orbital update algorithm             .... Taylor
   White noise on init. David. guess    .... on
   Maximum white noise                  ....   0.010
   Quad. conv. algorithm                .... NR
 SOSCF                  CNVSOSCF        .... on
   Start iteration      SOSCFMaxIt      ....   150
   Startup grad/error   SOSCFStart      ....  0.003300
 Level Shifting         CNVShift        .... on
   Level shift para.    LevelShift      ....    0.2500
   Turn off err/grad.   ShiftErr        ....    0.0010
 Zerner damping         CNVZerner       .... off
 Static damping         CNVDamp         .... on
   Fraction old density DampFac         ....    0.7000
   Max. Damping (<1)    DampMax         ....    0.9800
   Min. Damping (>=0)   DampMin         ....    0.0000
   Turn off err/grad.   DampErr         ....    0.1000
 Fernandez-Rico         CNVRico         .... off

SCF Procedure:
 Maximum # iterations   MaxIter         ....   500
 SCF integral mode      SCFMode         .... Direct
   Integral package                     .... SHARK and LIBINT hybrid scheme
 Reset frequency        DirectResetFreq ....    20
 Integral Threshold     Thresh          ....  2.500e-11 Eh
 Primitive CutOff       TCut            ....  2.500e-12 Eh

Convergence Tolerance:
 Convergence Check Mode ConvCheckMode   .... Total+1el-Energy
 Convergence forced     ConvForced      .... 1
 Energy Change          TolE            ....  1.000e-08 Eh
 1-El. energy change                    ....  1.000e-05 Eh
 Orbital Gradient       TolG            ....  1.000e-05
 Orbital Rotation angle TolX            ....  1.000e-05
 DIIS Error             TolErr          ....  5.000e-07


Diagonalization of the overlap matrix:
Smallest eigenvalue                        ... 5.927e-03
Time for diagonalization                   ...    0.057 sec
Threshold for overlap eigenvalues          ... 1.000e-08
Number of eigenvalues below threshold      ... 0
Time for construction of square roots      ...    0.068 sec
Total time needed                          ...    0.125 sec

Time for model grid setup =    0.052 sec

------------------------------
INITIAL GUESS: MODEL POTENTIAL
------------------------------
Loading Hartree-Fock densities                     ... done
Calculating cut-offs                               ... done
Initializing the effective Hamiltonian             ... done
Setting up the integral package (SHARK)            ... done
Starting the Coulomb interaction                   ... done (   0.5 sec)
Reading the grid                                   ... done
Mapping shells                                     ... done
Starting the XC term evaluation                    ... done (   0.0 sec)
  promolecular density results
     # of electrons  =     29.998473643
     EX              =    -24.767581068
     EC              =     -0.998102810
     EX+EC           =    -25.765683878
Transforming the Hamiltonian                       ... done (   0.2 sec)
Diagonalizing the Hamiltonian                      ... done (   0.0 sec)
Back transforming the eigenvectors                 ... done (   0.0 sec)
Now organizing SCF variables                       ... done
                      ------------------
                      INITIAL GUESS DONE (   0.8 sec)
                      ------------------
-------------------
DFT GRID GENERATION
-------------------

General Integration Accuracy     IntAcc      ... 4.388
Radial Grid Type                 RadialGrid  ... OptM3 with GC (2021)
Angular Grid (max. ang.)         AngularGrid ... 4 (Lebedev-302)
Angular grid pruning method      GridPruning ... 4 (adaptive)
Weight generation scheme         WeightScheme... Becke
Basis function cutoff            BFCut       ... 1.0000e-11
Integration weight cutoff        WCut        ... 1.0000e-14
Angular grids for H and He will be reduced by one unit
Partially contracted basis set               ... off
Rotationally invariant grid construction     ... off

Total number of grid points                  ...    37378
Total number of batches                      ...      588
Average number of points per batch           ...       63
Average number of grid points per atom       ...     4672
Time for grid setup =    0.242 sec

--------------------
COSX GRID GENERATION
--------------------

GRIDX 1
-------
General Integration Accuracy     IntAcc      ... 3.816
Radial Grid Type                 RadialGrid  ... OptM3 with GC (2021)
Angular Grid (max. ang.)         AngularGrid ... 1 (Lebedev-50)
Angular grid pruning method      GridPruning ... 4 (adaptive)
Weight generation scheme         WeightScheme... Becke
Basis function cutoff            BFCut       ... 1.0000e-11
Integration weight cutoff        WCut        ... 1.0000e-14
Angular grids for H and He will be reduced by one unit
Partially contracted basis set               ... on
Rotationally invariant grid construction     ... off

Total number of grid points                  ...     4793
Total number of batches                      ...       78
Average number of points per batch           ...       61
Average number of grid points per atom       ...      599
UseSFitting                                  ... on

GRIDX 2
-------
General Integration Accuracy     IntAcc      ... 4.020
Radial Grid Type                 RadialGrid  ... OptM3 with GC (2021)
Angular Grid (max. ang.)         AngularGrid ... 2 (Lebedev-110)
Angular grid pruning method      GridPruning ... 4 (adaptive)
Weight generation scheme         WeightScheme... Becke
Basis function cutoff            BFCut       ... 1.0000e-11
Integration weight cutoff        WCut        ... 1.0000e-14
Angular grids for H and He will be reduced by one unit
Partially contracted basis set               ... on
Rotationally invariant grid construction     ... off

Total number of grid points                  ...    10530
Total number of batches                      ...      169
Average number of points per batch           ...       62
Average number of grid points per atom       ...     1316
UseSFitting                                  ... on

GRIDX 3
-------
General Integration Accuracy     IntAcc      ... 4.338
Radial Grid Type                 RadialGrid  ... OptM3 with GC (2021)
Angular Grid (max. ang.)         AngularGrid ... 3 (Lebedev-194)
Angular grid pruning method      GridPruning ... 4 (adaptive)
Weight generation scheme         WeightScheme... Becke
Basis function cutoff            BFCut       ... 1.0000e-11
Integration weight cutoff        WCut        ... 1.0000e-14
Angular grids for H and He will be reduced by one unit
Partially contracted basis set               ... on
Rotationally invariant grid construction     ... off

Total number of grid points                  ...    23245
Total number of batches                      ...      367
Average number of points per batch           ...       63
Average number of grid points per atom       ...     2906
UseSFitting                                  ... on

Time for X-Grid setup             =    1.982 sec

--------------
SCF ITERATIONS
--------------
ITER       Energy         Delta-E        Max-DP      RMS-DP      [F,P]     Damp
               ***  Starting incremental Fock matrix formation  ***
  0   -191.5871093927   0.000000000000 0.09597306  0.00710413  0.2505490 0.7000
  1   -191.6441511520  -0.057041759265 0.05693581  0.00452622  0.1004422 0.7000
                               ***Turning on DIIS***
  2   -191.6644372419  -0.020286089876 0.06826875  0.00632446  0.0337825 0.0000
  3   -191.7000091911  -0.035571949256 0.03842074  0.00331055  0.0508282 0.0000
  4   -191.7059949779  -0.005985786774 0.00908322  0.00103541  0.0182363 0.0000
                      *** Initiating the SOSCF procedure ***
                           *** Shutting down DIIS ***
                      *** Re-Reading the Fockian *** 
                      *** Removing any level shift *** 
ITER      Energy       Delta-E        Grad      Rot      Max-DP    RMS-DP
  5   -191.70669938  -0.0007044044  0.000600  0.000600  0.003399  0.000249
               *** Restarting incremental Fock matrix formation ***
  6   -191.70671885  -0.0000194697  0.000508  0.001623  0.002012  0.000159
  7   -191.70671453   0.0000043183  0.000876  0.001190  0.001312  0.000084
  8   -191.70672133  -0.0000067997  0.000061  0.000113  0.000263  0.000019
  9   -191.70672131   0.0000000278  0.000073  0.000066  0.000139  0.000010
 10   -191.70672140  -0.0000000908  0.000012  0.000047  0.000063  0.000005
 11   -191.70672139   0.0000000049  0.000019  0.000030  0.000042  0.000003
                  ***Gradient check signals convergence***
              ***Rediagonalizing the Fockian in SOSCF/NRSCF***

               *****************************************************
               *                     SUCCESS                       *
               *           SCF CONVERGED AFTER  12 CYCLES          *
               *****************************************************

Old exchange energy                            =     -5.032070606 Eh
New exchange energy                            =     -5.032070903 Eh
Exchange energy change after final integration =     -0.000000296 Eh
Total energy after final integration           =   -191.706721694 Eh
Final COS-X integration done in                =     0.817 sec

----------------
TOTAL SCF ENERGY
----------------

Total Energy       :         -191.70672169 Eh           -5216.60510 eV

Components:
Nuclear Repulsion  :          105.98197646 Eh            2883.91619 eV
Electronic Energy  :         -297.68869815 Eh           -8100.52130 eV
One Electron Energy:         -468.83672176 Eh          -12757.69579 eV
Two Electron Energy:          171.14802361 Eh            4657.17449 eV
Max COSX asymmetry :            0.00000052 Eh               0.00001 eV

Virial components:
Potential Energy   :         -382.83931156 Eh          -10417.58729 eV
Kinetic Energy     :          191.13258987 Eh            5200.98218 eV
Virial Ratio       :            2.00300384


DFT components:
N(Alpha)           :       14.999992483432 electrons
N(Beta)            :       14.999992483432 electrons
N(Total)           :       29.999984966863 electrons
E(X)               :      -20.024991478126 Eh       
E(C)               :       -1.185696581862 Eh       
E(XC)              :      -21.210688059987 Eh       
DFET-embed. en.    :        0.000000000000 Eh       

---------------
SCF CONVERGENCE
---------------

  Last Energy change         ...   -6.4589e-09  Tolerance :   1.0000e-08
  Last MAX-Density change    ...    2.0895e-15  Tolerance :   1.0000e-07
  Last RMS-Density change    ...    1.0009e-16  Tolerance :   5.0000e-09
  Last Orbital Gradient      ...    8.6824e-07  Tolerance :   1.0000e-05
  Last Orbital Rotation      ...    1.2542e-06  Tolerance :   1.0000e-05

             **** THE GBW FILE WAS UPDATED (acrolien.798.gbw) ****
             **** DENSITY acrolien.798.scfp WAS UPDATED ****
             **** ENERGY FILE WAS UPDATED (acrolien.798.en.tmp) ****
             **** THE GBW FILE WAS UPDATED (acrolien.798.gbw) ****
             **** DENSITY acrolien.798.scfp WAS UPDATED ****
----------------
ORBITAL ENERGIES
----------------

  NO   OCC          E(Eh)            E(eV) 
   0   2.0000     -19.150005      -521.0981 
   1   2.0000     -10.271200      -279.4936 
   2   2.0000     -10.210588      -277.8442 
   3   2.0000     -10.190965      -277.3103 
   4   2.0000      -1.117933       -30.4205 
   5   2.0000      -0.779809       -21.2197 
   6   2.0000      -0.648241       -17.6395 
   7   2.0000      -0.556664       -15.1476 
   8   2.0000      -0.519348       -14.1322 
   9   2.0000      -0.447308       -12.1719 
  10   2.0000      -0.427932       -11.6446 
  11   2.0000      -0.423911       -11.5352 
  12   2.0000      -0.386675       -10.5220 
  13   2.0000      -0.275131        -7.4867 
  14   2.0000      -0.253930        -6.9098 
  15   0.0000      -0.057548        -1.5660 
  16   0.0000       0.058341         1.5875 
  17   0.0000       0.120803         3.2872 
  18   0.0000       0.130759         3.5581 
  19   0.0000       0.177660         4.8344 
  20   0.0000       0.190461         5.1827 
  21   0.0000       0.265305         7.2193 
  22   0.0000       0.306358         8.3364 
  23   0.0000       0.319859         8.7038 
  24   0.0000       0.515978        14.0405 
  25   0.0000       0.540469        14.7069 
  26   0.0000       0.583195        15.8695 
  27   0.0000       0.616068        16.7641 
  28   0.0000       0.626064        17.0361 
  29   0.0000       0.663528        18.0555 
  30   0.0000       0.684670        18.6308 
  31   0.0000       0.784895        21.3581 
  32   0.0000       0.828765        22.5518 
  33   0.0000       0.859618        23.3914 
  34   0.0000       0.889009        24.1912 
  35   0.0000       0.947828        25.7917 
  36   0.0000       0.978408        26.6238 
  37   0.0000       0.989510        26.9259 
  38   0.0000       1.008668        27.4472 
  39   0.0000       1.115565        30.3561 
  40   0.0000       1.146296        31.1923 
  41   0.0000       1.183212        32.1968 
  42   0.0000       1.260609        34.3029 
  43   0.0000       1.790342        48.7177 

                    ********************************
                    * MULLIKEN POPULATION ANALYSIS *
                    ********************************

-----------------------
MULLIKEN ATOMIC CHARGES
-----------------------
   0 C :    0.170061
   1 O :   -0.315322
   2 C :   -0.120795
   3 C :   -0.267683
   4 H :    0.097001
   5 H :    0.116813
   6 H :    0.174845
   7 H :    0.145080
Sum of atomic charges:   -0.0000000

--------------------------------
MULLIKEN REDUCED ORBITAL CHARGES
--------------------------------
  0 C s       :     3.156940  s :     3.156940
      pz      :     0.793540  p :     2.672999
      px      :     1.044449
      py      :     0.835011
  1 O s       :     3.902538  s :     3.902538
      pz      :     1.287927  p :     4.412784
      px      :     1.779825
      py      :     1.345031
  2 C s       :     3.231048  s :     3.231048
      pz      :     1.021469  p :     2.889746
      px      :     0.913200
      py      :     0.955077
  3 C s       :     3.320535  s :     3.320535
      pz      :     0.892650  p :     2.947148
      px      :     0.995428
      py      :     1.059070
  4 H s       :     0.902999  s :     0.902999
  5 H s       :     0.883187  s :     0.883187
  6 H s       :     0.825155  s :     0.825155
  7 H s       :     0.854920  s :     0.854920


                     *******************************
                     * LOEWDIN POPULATION ANALYSIS *
                     *******************************

----------------------
LOEWDIN ATOMIC CHARGES
----------------------
   0 C :    0.107490
   1 O :   -0.187974
   2 C :   -0.198993
   3 C :   -0.163018
   4 H :    0.065261
   5 H :    0.115192
   6 H :    0.137606
   7 H :    0.124436

-------------------------------
LOEWDIN REDUCED ORBITAL CHARGES
-------------------------------
  0 C s       :     2.957099  s :     2.957099
      pz      :     0.796402  p :     2.935410
      px      :     1.089080
      py      :     1.049928
  1 O s       :     3.579530  s :     3.579530
      pz      :     1.287025  p :     4.608444
      px      :     1.827939
      py      :     1.493480
  2 C s       :     2.994634  s :     2.994634
      pz      :     1.017527  p :     3.204359
      px      :     1.084174
      py      :     1.102658
  3 C s       :     3.035552  s :     3.035552
      pz      :     0.895817  p :     3.127466
      px      :     1.100898
      py      :     1.130752
  4 H s       :     0.934739  s :     0.934739
  5 H s       :     0.884808  s :     0.884808
  6 H s       :     0.862394  s :     0.862394
  7 H s       :     0.875564  s :     0.875564


                      *****************************
                      * MAYER POPULATION ANALYSIS *
                      *****************************

  NA   - Mulliken gross atomic population
  ZA   - Total nuclear charge
  QA   - Mulliken gross atomic charge
  VA   - Mayer's total valence
  BVA  - Mayer's bonded valence
  FA   - Mayer's free valence

  ATOM       NA         ZA         QA         VA         BVA        FA
  0 C      5.8299     6.0000     0.1701     3.7802     3.7802    -0.0000
  1 O      8.3153     8.0000    -0.3153     2.0897     2.0897    -0.0000
  2 C      6.1208     6.0000    -0.1208     3.7424     3.7424    -0.0000
  3 C      6.2677     6.0000    -0.2677     3.8304     3.8304    -0.0000
  4 H      0.9030     1.0000     0.0970     0.9190     0.9190    -0.0000
  5 H      0.8832     1.0000     0.1168     0.9408     0.9408     0.0000
  6 H      0.8252     1.0000     0.1748     0.9489     0.9489    -0.0000
  7 H      0.8549     1.0000     0.1451     0.9447     0.9447     0.0000

  Mayer bond orders larger than 0.100000
B(  0-C ,  1-O ) :   1.9210 B(  0-C ,  2-C ) :   0.9409 B(  0-C ,  4-H ) :   0.8796 
B(  2-C ,  3-C ) :   1.8719 B(  2-C ,  5-H ) :   0.9390 B(  3-C ,  6-H ) :   0.9225 
B(  3-C ,  7-H ) :   0.9405 

-------
TIMINGS
-------

Total SCF time: 0 days 0 hours 0 min 54 sec 

Total time                  ....      54.060 sec
Sum of individual times     ....      44.054 sec  ( 81.5%)

Fock matrix formation       ....      39.716 sec  ( 73.5%)
  Split-RI-J                ....       0.611 sec  (  1.5% of F)
  Chain of spheres X        ....       4.431 sec  ( 11.2% of F)
  XC integration            ....      14.807 sec  ( 37.3% of F)
    Basis function eval.    ....       0.940 sec  (  6.3% of XC)
    Density eval.           ....       0.392 sec  (  2.7% of XC)
    XC-Functional eval.     ....       0.502 sec  (  3.4% of XC)
    XC-Potential eval.      ....       0.238 sec  (  1.6% of XC)
Diagonalization             ....       0.003 sec  (  0.0%)
Density matrix formation    ....       0.000 sec  (  0.0%)
Population analysis         ....       0.771 sec  (  1.4%)
Initial guess               ....       0.761 sec  (  1.4%)
Orbital Transformation      ....       0.000 sec  (  0.0%)
Orbital Orthonormalization  ....       0.000 sec  (  0.0%)
DIIS solution               ....       0.001 sec  (  0.0%)
SOSCF solution              ....       0.525 sec  (  1.0%)
Grid generation             ....       2.276 sec  (  4.2%)

Maximum memory used throughout the entire SCF-calculation: 46.8 MB
------------------------------------------------------------------------------
                        ORCA TD-DFT/TDA CALCULATION
------------------------------------------------------------------------------

Input orbitals are from        ... acrolien.798.gbw
CI-vector output               ... acrolien.798.cis
Tamm-Dancoff approximation     ... operative
CIS-Integral strategy          ... AO-integrals
Integral handling              ... AO integral Direct
Max. core memory used          ... 512 MB
Reference state                ... RHF
Generation of triplets         ... off
Follow IRoot                   ... off
Number of operators            ... 1
Orbital ranges used for CIS calculation:
 Operator 0:  Orbitals   4... 14  to  15... 43
XAS localization array:
 Operator 0:  Orbitals  -1... -1

-------------------
XC-INTEGRATION GRID
-------------------

General Integration Accuracy     IntAcc      ... 3.467
Radial Grid Type                 RadialGrid  ... OptM3 with GC (2021)
Angular Grid (max. ang.)         AngularGrid ... 1 (Lebedev-50)
Angular grid pruning method      GridPruning ... 4 (adaptive)
Weight generation scheme         WeightScheme... Becke
Basis function cutoff            BFCut       ... 1.0000e-11
Integration weight cutoff        WCut        ... 1.0000e-14
Angular grids for H and He will be reduced by one unit
Partially contracted basis set               ... off
Rotationally invariant grid construction     ... off

Total number of grid points                  ...     5482
Total number of batches                      ...       90
Average number of points per batch           ...       60
Average number of grid points per atom       ...      685

---------------------
COSX-INTEGRATION GRID
---------------------

General Integration Accuracy     IntAcc      ... 3.067
Radial Grid Type                 RadialGrid  ... OptM3 with GC (2021)
Angular Grid (max. ang.)         AngularGrid ... 1 (Lebedev-50)
Angular grid pruning method      GridPruning ... 4 (adaptive)
Weight generation scheme         WeightScheme... Becke
Basis function cutoff            BFCut       ... 1.0000e-11
Integration weight cutoff        WCut        ... 1.0000e-14
Angular grids for H and He will be reduced by one unit
Partially contracted basis set               ... on
Rotationally invariant grid construction     ... off

Total number of grid points                  ...     2506
Total number of batches                      ...       45
Average number of points per batch           ...       55
Average number of grid points per atom       ...      313

---------------
TD-DFT XC SETUP
---------------

DFT calculation                         ... on
Name of the grid file                   ... acrolien.798.grid_cis.tmp
Exchange functional (TD-DFT)            ... B88
   X-Alpha parameter    XAlpha (TD-DFT) ...  0.666667
   Becke's b parameter  XBeta (TD-DFT)  ...  0.004200
Correlation functional (TD-DFT)         ... LYP
 LDA part of GGA corr.  LDAOpt (TD-DFT) ... VWN-5
Hybrid DFT                              ... on
   Exchange mixing (TD-DFT)             ...  0.200
   GGA exch. scaling (TD-DFT)           ...  0.720
   GGA corr. scaling (TD-DFT)           ...  0.810

Building densities             ... done
Calculating rho(r) on the grid ... done
Building xc-kernel on the grid ... done
                    *** TD-DFT CALCULATION INITIALIZED ***

------------------------
DAVIDSON-DIAGONALIZATION
------------------------

Dimension of the eigenvalue problem            ...    319
Number of roots to be determined               ...      1
Maximum size of the expansion space            ...     10
Maximum number of iterations                   ...    100
Convergence tolerance for the residual         ...    2.500e-07
Convergence tolerance for the energies         ...    2.500e-07
Orthogonality tolerance                        ...    1.000e-14
Level Shift                                    ...    0.000e+00
Constructing the preconditioner                ... o.k.
Building the initial guess                     ... o.k.
Number of trial vectors determined             ...     10


                       ****Iteration    0****

   Memory handling for direct AO based CIS:
   Memory per vector needed      ...     1 MB
   Memory needed                 ...     0 MB
   Memory available              ...   512 MB
   Number of vectors per batch   ...   512
   Number of batches             ...     1
   Time for densities:            0.000
   Time for RI-J (Direct):        0.043
   Time for K (COSX):             0.116
   Time for XC-Integration:       0.038
   Time for Sigma-Completion:     0.000
   Size of expansion space: 3
   Lowest Energy          :     0.140676179893
   Maximum Energy change  :     0.140676179893 (vector 0)
   Maximum residual norm  :     0.000636930371

                       ****Iteration    1****
   Time for densities:            0.000
   Time for RI-J (Direct):        0.034
   Time for K (COSX):             0.109
   Time for XC-Integration:       0.022
   Time for Sigma-Completion:     0.000
   Size of expansion space: 4
   Lowest Energy          :     0.139727324400
   Maximum Energy change  :     0.000948855493 (vector 0)
   Maximum residual norm  :     0.000116684110

                       ****Iteration    2****
   Time for densities:            0.000
   Time for RI-J (Direct):        0.035
   Time for K (COSX):             0.108
   Time for XC-Integration:       0.023
   Time for Sigma-Completion:     0.000
   Size of expansion space: 5
   Lowest Energy          :     0.139611666963
   Maximum Energy change  :     0.000115657437 (vector 0)
   Maximum residual norm  :     0.000007797904

                       ****Iteration    3****
   Time for densities:            0.000
   Time for RI-J (Direct):        0.034
   Time for K (COSX):             0.107
   Time for XC-Integration:       0.022
   Time for Sigma-Completion:     0.000
   Size of expansion space: 6
   Lowest Energy          :     0.139602931979
   Maximum Energy change  :     0.000008734984 (vector 0)
   Maximum residual norm  :     0.000000607694

                       ****Iteration    4****
   Time for densities:            0.000
   Time for RI-J (Direct):        0.034
   Time for K (COSX):             0.406
   Time for XC-Integration:       0.022
   Time for Sigma-Completion:     0.000
   Size of expansion space: 7
   Lowest Energy          :     0.139602111760
   Maximum Energy change  :     0.000000820219 (vector 0)
   Maximum residual norm  :     0.000000011916

      *** CONVERGENCE OF RESIDUAL NORM REACHED ***

Storing the converged CI vectors               ... acrolien.798.cis1

                 *** DAVIDSON DONE ***

Total time for solving the CIS problem:     1.517sec

------------------------------------
TD-DFT/TDA EXCITED STATES (SINGLETS)
------------------------------------

the weight of the individual excitations are printed if larger than 1.0e-02

STATE  1:  E=   0.139602 au      3.799 eV    30639.1 cm**-1 <S**2> =   0.000000
    14a ->  15a  :     0.975639 (c= -0.98774449)
    14a ->  16a  :     0.015789 (c= -0.12565379)


-----------------------------
TD-DFT/TDA-EXCITATION SPECTRA
-----------------------------

Center of mass = (  0.5754, -0.9096, -0.0002)
Calculating the Dipole integrals                  ... done
Transforming integrals                            ... done
Calculating the Linear Momentum integrals         ... done
Transforming integrals                            ... done
Calculating angular momentum integrals            ... done
Transforming integrals                            ... done

-----------------------------------------------------------------------------
         ABSORPTION SPECTRUM VIA TRANSITION ELECTRIC DIPOLE MOMENTS
-----------------------------------------------------------------------------
State   Energy    Wavelength  fosc         T2        TX        TY        TZ  
        (cm-1)      (nm)                 (au**2)    (au)      (au)      (au) 
-----------------------------------------------------------------------------
   1   30639.1    326.4   0.000592954   0.00637   0.07802   0.01679  -0.00159

-----------------------------------------------------------------------------
         ABSORPTION SPECTRUM VIA TRANSITION VELOCITY DIPOLE MOMENTS
-----------------------------------------------------------------------------
State   Energy    Wavelength   fosc        P2         PX        PY        PZ  
        (cm-1)      (nm)                 (au**2)     (au)      (au)      (au) 
-----------------------------------------------------------------------------
   1   30639.1    326.4   0.000508831   0.00011  -0.00214   0.00017   0.01010

-------------------------------------------------------------------
                             CD SPECTRUM
-------------------------------------------------------------------
State  Energy     Wavelength     R         MX        MY        MZ   
       (cm-1)       (nm)     (1e40*cgs)   (au)      (au)      (au)  
-------------------------------------------------------------------
   1   30639.1    326.4     -2.43280  -0.00102  -0.30293  -0.00316

-------------------------------------------------------------------
         CD SPECTRUM VIA TRANSITION VELOCITY DIPOLE MOMENTS        
-------------------------------------------------------------------
State  Energy     Wavelength     R         MX        MY        MZ   
       (cm-1)       (nm)     (1e40*cgs)   (au)      (au)      (au)  
-------------------------------------------------------------------
   1   30639.1    326.4     -0.27484  -0.00102  -0.30293  -0.00316

Total run time:        3.665 sec

           *** ORCA-CIS/TD-DFT FINISHED WITHOUT ERROR ***

Maximum memory used throughout the entire CIS-calculation: 42.9 MB

-----------------------
CIS/TD-DFT TOTAL ENERGY
-----------------------

    E(SCF)  =   -191.706721694 Eh
    DE(CIS) =      0.139602112 Eh (Root  1)
    ----------------------------- ---------
    E(tot)  =   -191.567119583 Eh


-------------------------   --------------------
FINAL SINGLE POINT ENERGY      -191.567119582519
-------------------------   --------------------


                            ***************************************
                            *     ORCA property calculations      *
                            ***************************************

                                    ---------------------
                                    Active property flags
                                    ---------------------
   (+) Dipole Moment


------------------------------------------------------------------------------
                       ORCA ELECTRIC PROPERTIES CALCULATION
------------------------------------------------------------------------------

Dipole Moment Calculation                       ... on
Quadrupole Moment Calculation                   ... off
Polarizability Calculation                      ... off
GBWName                                         ... acrolien.798.gbw
Electron density                                ... acrolien.798.scfp
The origin for moment calculation is the CENTER OF MASS  = ( 0.575385, -0.909593 -0.000242)

-------------
DIPOLE MOMENT
-------------
                                X             Y             Z
Electronic contribution:     -1.92928      -1.43705       0.11415
Nuclear contribution   :      2.19136       2.30777      -0.21489
                        -----------------------------------------
Total Dipole Moment    :      0.26208       0.87071      -0.10074
                        -----------------------------------------
Magnitude (a.u.)       :      0.91487
Magnitude (Debye)      :      2.32540



--------------------
Rotational spectrum 
--------------------
 
Rotational constants in cm-1:     0.739772     0.218259     0.168756 
Rotational constants in MHz : 22177.798768  6543.226398  5059.174774 

 Dipole components along the rotational axes: 
x,y,z [a.u.] :     0.675831    -0.607987    -0.102868 
x,y,z [Debye]:     1.717827    -1.545380    -0.261470 

 

Timings for individual modules:

Sum of individual times         ...       60.015 sec (=   1.000 min)
GTO integral calculation        ...        1.670 sec (=   0.028 min)   2.8 %
SCF iterations                  ...       54.671 sec (=   0.911 min)  91.1 %
CIS module                      ...        3.673 sec (=   0.061 min)   6.1 %
                             ****ORCA TERMINATED NORMALLY****
TOTAL RUN TIME: 0 days 0 hours 1 minutes 1 seconds 367 msec
