
                                 *****************
                                 * O   R   C   A *
                                 *****************

                                            #,                                       
                                            ###                                      
                                            ####                                     
                                            #####                                    
                                            ######                                   
                                           ########,                                 
                                     ,,################,,,,,                         
                               ,,#################################,,                 
                          ,,##########################################,,             
                       ,#########################################, ''#####,          
                    ,#############################################,,   '####,        
                  ,##################################################,,,,####,       
                ,###########''''           ''''###############################       
              ,#####''   ,,,,##########,,,,          '''####'''          '####       
            ,##' ,,,,###########################,,,                        '##       
           ' ,,###''''                  '''############,,,                           
         ,,##''                                '''############,,,,        ,,,,,,###''
      ,#''                                            '''#######################'''  
     '                                                          ''''####''''         
             ,#######,   #######,   ,#######,      ##                                
            ,#'     '#,  ##    ##  ,#'     '#,    #''#        ######   ,####,        
            ##       ##  ##   ,#'  ##            #'  '#       #        #'  '#        
            ##       ##  #######   ##           ,######,      #####,   #    #        
            '#,     ,#'  ##    ##  '#,     ,#' ,#      #,         ##   #,  ,#        
             '#######'   ##     ##  '#######'  #'      '#     #####' # '####'        



                  #######################################################
                  #                        -***-                        #
                  #          Department of theory and spectroscopy      #
                  #    Directorship and core code : Frank Neese         #
                  #        Max Planck Institute fuer Kohlenforschung    #
                  #                Kaiser Wilhelm Platz 1               #
                  #                 D-45470 Muelheim/Ruhr               #
                  #                      Germany                        #
                  #                                                     #
                  #                  All rights reserved                #
                  #                        -***-                        #
                  #######################################################


                         Program Version 5.0.3 -  RELEASE  -


 With contributions from (in alphabetic order):
   Daniel Aravena         : Magnetic Suceptibility
   Michael Atanasov       : Ab Initio Ligand Field Theory (pilot matlab implementation)
   Alexander A. Auer      : GIAO ZORA, VPT2 properties, NMR spectrum
   Ute Becker             : Parallelization
   Giovanni Bistoni       : ED, misc. LED, open-shell LED, HFLD
   Martin Brehm           : Molecular dynamics
   Dmytro Bykov           : SCF Hessian
   Vijay G. Chilkuri      : MRCI spin determinant printing, contributions to CSF-ICE
   Dipayan Datta          : RHF DLPNO-CCSD density
   Achintya Kumar Dutta   : EOM-CC, STEOM-CC
   Dmitry Ganyushin       : Spin-Orbit,Spin-Spin,Magnetic field MRCI
   Miquel Garcia          : C-PCM and meta-GGA Hessian, CC/C-PCM, Gaussian charge scheme
   Yang Guo               : DLPNO-NEVPT2, F12-NEVPT2, CIM, IAO-localization
   Andreas Hansen         : Spin unrestricted coupled pair/coupled cluster methods
   Benjamin Helmich-Paris : MC-RPA, TRAH-SCF, COSX integrals
   Lee Huntington         : MR-EOM, pCC
   Robert Izsak           : Overlap fitted RIJCOSX, COSX-SCS-MP3, EOM
   Marcus Kettner         : VPT2
   Christian Kollmar      : KDIIS, OOCD, Brueckner-CCSD(T), CCSD density, CASPT2, CASPT2-K
   Simone Kossmann        : Meta GGA functionals, TD-DFT gradient, OOMP2, MP2 Hessian
   Martin Krupicka        : Initial AUTO-CI
   Lucas Lang             : DCDCAS
   Marvin Lechner         : AUTO-CI (C++ implementation), FIC-MRCC
   Dagmar Lenk            : GEPOL surface, SMD
   Dimitrios Liakos       : Extrapolation schemes; Compound Job, initial MDCI parallelization
   Dimitrios Manganas     : Further ROCIS development; embedding schemes
   Dimitrios Pantazis     : SARC Basis sets
   Anastasios Papadopoulos: AUTO-CI, single reference methods and gradients
   Taras Petrenko         : DFT Hessian,TD-DFT gradient, ASA, ECA, R-Raman, ABS, FL, XAS/XES, NRVS
   Peter Pinski           : DLPNO-MP2, DLPNO-MP2 Gradient
   Christoph Reimann      : Effective Core Potentials
   Marius Retegan         : Local ZFS, SOC
   Christoph Riplinger    : Optimizer, TS searches, QM/MM, DLPNO-CCSD(T), (RO)-DLPNO pert. Triples
   Tobias Risthaus        : Range-separated hybrids, TD-DFT gradient, RPA, STAB
   Michael Roemelt        : Original ROCIS implementation
   Masaaki Saitow         : Open-shell DLPNO-CCSD energy and density
   Barbara Sandhoefer     : DKH picture change effects
   Avijit Sen             : IP-ROCIS
   Kantharuban Sivalingam : CASSCF convergence, NEVPT2, FIC-MRCI
   Bernardo de Souza      : ESD, SOC TD-DFT
   Georgi Stoychev        : AutoAux, RI-MP2 NMR, DLPNO-MP2 response
   Willem Van den Heuvel  : Paramagnetic NMR
   Boris Wezisla          : Elementary symmetry handling
   Frank Wennmohs         : Technical directorship


 We gratefully acknowledge several colleagues who have allowed us to
 interface, adapt or use parts of their codes:
   Stefan Grimme, W. Hujo, H. Kruse, P. Pracht,  : VdW corrections, initial TS optimization,
                  C. Bannwarth, S. Ehlert          DFT functionals, gCP, sTDA/sTD-DF
   Ed Valeev, F. Pavosevic, A. Kumar             : LibInt (2-el integral package), F12 methods
   Garnet Chan, S. Sharma, J. Yang, R. Olivares  : DMRG
   Ulf Ekstrom                                   : XCFun DFT Library
   Mihaly Kallay                                 : mrcc  (arbitrary order and MRCC methods)
   Jiri Pittner, Ondrej Demel                    : Mk-CCSD
   Frank Weinhold                                : gennbo (NPA and NBO analysis)
   Christopher J. Cramer and Donald G. Truhlar   : smd solvation model
   Lars Goerigk                                  : TD-DFT with DH, B97 family of functionals
   V. Asgeirsson, H. Jonsson                     : NEB implementation
   FAccTs GmbH                                   : IRC, NEB, NEB-TS, DLPNO-Multilevel, CI-OPT
                                                   MM, QMMM, 2- and 3-layer-ONIOM, Crystal-QMMM,
                                                   LR-CPCM, SF, NACMEs, symmetry and pop. for TD-DFT,
                                                   nearIR, NL-DFT gradient (VV10), updates on ESD,
                                                   ML-optimized integration grids
   S Lehtola, MJT Oliveira, MAL Marques          : LibXC Library
   Liviu Ungur et al                             : ANISO software


 Your calculation uses the libint2 library for the computation of 2-el integrals
 For citations please refer to: http://libint.valeyev.net

 Your ORCA version has been built with support for libXC version: 5.1.0
 For citations please refer to: https://tddft.org/programs/libxc/

 This ORCA versions uses:
   CBLAS   interface :  Fast vector & matrix operations
   LAPACKE interface :  Fast linear algebra routines
   SCALAPACK package :  Parallel linear algebra routines
   Shared memory     :  Shared parallel matrices
   BLAS/LAPACK       :  OpenBLAS 0.3.15  USE64BITINT DYNAMIC_ARCH NO_AFFINITY Haswell SINGLE_THREADED
        Core in use  :  Haswell
   Copyright (c) 2011-2014, The OpenBLAS Project


================================================================================

----- Orbital basis set information -----
Your calculation utilizes the basis: 6-31G
   H-He, Li-Ne : W. J. Hehre, R. Ditchfield and J.A. Pople, J. Chem. Phys. 56, 2257 (1972).
                 Note: He and Ne are unpublished basis sets taken from the Gaussian program.
                 Note: Li and B from J. D. Dill and J. A. Pople, J. Chem. Phys. 62, 2921 (1975).
   Na - Ar     : M. M. Francl, W. J. Pietro, W. J. Hehre, J. S. Binkley, M. S. Gordon, 
                 D. J. DeFrees and J. A. Pople, J. Chem. Phys. 77, 3654 (1982).
   K - Zn      : V. A. Rassolov, J. A. Pople, M. A. Ratner, and T. L. Windus, J. Chem. Phys. 109, 1223 (1998).

----- AuxJ basis set information -----
Your calculation utilizes the auxiliary basis: def2/J
   F. Weigend, Phys. Chem. Chem. Phys. 8, 1057 (2006).

================================================================================
                                        WARNINGS
                       Please study these warnings very carefully!
================================================================================

INFO   : Checking CIS options ...

INFO   : the flag for use of the SHARK integral package has been found!

================================================================================
                                       INPUT FILE
================================================================================
NAME = acrolien.918.com
|  1> ! B3LYP 6-31G
|  2> !TightSCF
|  3> %scf
|  4>  ConvForced true
|  5>  convergence tight
|  6>  MaxIter 500
|  7> end
|  8>  
|  9> %tddft 
| 10>  nroots 1
| 11> end
| 12> 
| 13> # 	16914
| 14> * xyz 0 1
| 15> 		C   -1.201336  -0.269019   0.051866
| 16> 		O   -1.932153  -0.792436   0.891717
| 17> 		C    0.028135   0.470977   0.314103
| 18> 		C    1.202424   0.206232  -0.212353
| 19> 		H   -1.406817  -0.548388  -1.007177
| 20> 		H   -0.201031   1.168089   0.850174
| 21> 		H    1.358255  -0.874948  -0.794234
| 22> 		H    2.151503   0.632714  -0.076522
| 23> *
| 24> 
| 25>                          ****END OF INPUT****
================================================================================

                       ****************************
                       * Single Point Calculation *
                       ****************************

---------------------------------
CARTESIAN COORDINATES (ANGSTROEM)
---------------------------------
  C     -1.201336   -0.269019    0.051866
  O     -1.932153   -0.792436    0.891717
  C      0.028135    0.470977    0.314103
  C      1.202424    0.206232   -0.212353
  H     -1.406817   -0.548388   -1.007177
  H     -0.201031    1.168089    0.850174
  H      1.358255   -0.874948   -0.794234
  H      2.151503    0.632714   -0.076522

----------------------------
CARTESIAN COORDINATES (A.U.)
----------------------------
  NO LB      ZA    FRAG     MASS         X           Y           Z
   0 C     6.0000    0    12.011   -2.270196   -0.508372    0.098013
   1 O     8.0000    0    15.999   -3.651240   -1.497487    1.685101
   2 C     6.0000    0    12.011    0.053167    0.890018    0.593569
   3 C     6.0000    0    12.011    2.272252    0.389722   -0.401289
   4 H     1.0000    0     1.008   -2.658499   -1.036303   -1.903289
   5 H     1.0000    0     1.008   -0.379894    2.207368    1.606596
   6 H     1.0000    0     1.008    2.566730   -1.653412   -1.500885
   7 H     1.0000    0     1.008    4.065751    1.195656   -0.144606

--------------------------------
INTERNAL COORDINATES (ANGSTROEM)
--------------------------------
 C      0   0   0     0.000000000000     0.00000000     0.00000000
 O      1   0   0     1.230206708476     0.00000000     0.00000000
 C      1   2   0     1.458753325284   126.42674649     0.00000000
 C      3   1   2     1.313849493086   125.38341497   124.85897056
 H      1   2   3     1.114379448559   115.63193936   168.27186607
 H      3   1   2     0.908765268450   106.41778726   300.69379419
 H      4   3   1     1.237666752855   118.48599917   346.81919649
 H      4   3   1     1.049327358419   132.42490700   182.78059093

---------------------------
INTERNAL COORDINATES (A.U.)
---------------------------
 C      0   0   0     0.000000000000     0.00000000     0.00000000
 O      1   0   0     2.324753767132     0.00000000     0.00000000
 C      1   2   0     2.756644281733   126.42674649     0.00000000
 C      3   1   2     2.482815723124   125.38341497   124.85897056
 H      1   2   3     2.105871967047   115.63193936   168.27186607
 H      3   1   2     1.717317477390   106.41778726   300.69379419
 H      4   3   1     2.338851207955   118.48599917   346.81919649
 H      4   3   1     1.982941332242   132.42490700   182.78059093

---------------------
BASIS SET INFORMATION
---------------------
There are 3 groups of distinct atoms

 Group   1 Type C   : 10s4p contracted to 3s2p pattern {631/31}
 Group   2 Type O   : 10s4p contracted to 3s2p pattern {631/31}
 Group   3 Type H   : 4s contracted to 2s pattern {31}

Atom   0C    basis set group =>   1
Atom   1O    basis set group =>   2
Atom   2C    basis set group =>   1
Atom   3C    basis set group =>   1
Atom   4H    basis set group =>   3
Atom   5H    basis set group =>   3
Atom   6H    basis set group =>   3
Atom   7H    basis set group =>   3
---------------------------------
AUXILIARY/J BASIS SET INFORMATION
---------------------------------
There are 3 groups of distinct atoms

 Group   1 Type C   : 12s5p4d2f1g contracted to 6s4p3d1f1g pattern {711111/2111/211/2/1}
 Group   2 Type O   : 12s5p4d2f1g contracted to 6s4p3d1f1g pattern {711111/2111/211/2/1}
 Group   3 Type H   : 5s2p1d contracted to 3s1p1d pattern {311/2/1}

Atom   0C    basis set group =>   1
Atom   1O    basis set group =>   2
Atom   2C    basis set group =>   1
Atom   3C    basis set group =>   1
Atom   4H    basis set group =>   3
Atom   5H    basis set group =>   3
Atom   6H    basis set group =>   3
Atom   7H    basis set group =>   3
------------------------------------------------------------------------------
                           ORCA GTO INTEGRAL CALCULATION
                           -- RI-GTO INTEGRALS CHOSEN --
------------------------------------------------------------------------------
------------------------------------------------------------------------------
                   ___                                                        
                  /   \      - P O W E R E D   B Y -                         
                 /     \                                                     
                 |  |  |   _    _      __       _____    __    __             
                 |  |  |  | |  | |    /  \     |  _  \  |  |  /  |          
                  \  \/   | |  | |   /    \    | | | |  |  | /  /          
                 / \  \   | |__| |  /  /\  \   | |_| |  |  |/  /          
                |  |  |   |  __  | /  /__\  \  |    /   |      \           
                |  |  |   | |  | | |   __   |  |    \   |  |\   \          
                \     /   | |  | | |  |  |  |  | |\  \  |  | \   \       
                 \___/    |_|  |_| |__|  |__|  |_| \__\ |__|  \__/        
                                                                              
                      - O R C A' S   B I G   F R I E N D -                    
                                      &                                       
                       - I N T E G R A L  F E E D E R -                       
                                                                              
 v1 FN, 2020, v2 2021                                                         
------------------------------------------------------------------------------


Reading SHARK input file acrolien.918.SHARKINP.tmp ... ok
----------------------
SHARK INTEGRAL PACKAGE
----------------------

Number of atoms                             ...      8
Number of basis functions                   ...     44
Number of shells                            ...     28
Maximum angular momentum                    ...      1
Integral batch strategy                     ... SHARK/LIBINT Hybrid
RI-J (if used) integral strategy            ... SPLIT-RIJ (Revised 2003 algorithm where possible)
Printlevel                                  ...      1
Contraction scheme used                     ... SEGMENTED contraction
Coulomb Range Separation                    ... NOT USED
Exchange Range Separation                   ... NOT USED
Finite Nucleus Model                        ... NOT USED
Auxiliary Coulomb fitting basis             ... AVAILABLE
   # of basis functions in Aux-J            ...    240
   # of shells in Aux-J                     ...     80
   Maximum angular momentum in Aux-J        ...      4
Auxiliary J/K fitting basis                 ... NOT available
Auxiliary Correlation fitting basis         ... NOT available
Auxiliary 'external' fitting basis          ... NOT available
Integral threshold                          ...     2.500000e-11
Primitive cut-off                           ...     2.500000e-12
Primitive pair pre-selection threshold      ...     2.500000e-12

Calculating pre-screening integrals         ... done (  0.0 sec) Dimension = 28
Organizing shell pair data                  ... done (  0.1 sec)
Shell pair information
Total number of shell pairs                 ...       406
Shell pairs after pre-screening             ...       398
Total number of primitive shell pairs       ...      2724
Primitive shell pairs kept                  ...      1993
          la=0 lb=0:    203 shell pairs
          la=1 lb=0:    159 shell pairs
          la=1 lb=1:     36 shell pairs

Calculating one electron integrals          ... done (  0.0 sec)
Calculating RI/J V-Matrix + Cholesky decomp.... done (  0.1 sec)
Calculating Nuclear repulsion               ... done (  0.0 sec) ENN=    103.567315113280 Eh

SHARK setup successfully completed in   1.2 seconds

Maximum memory used throughout the entire GTOINT-calculation: 8.3 MB
-------------------------------------------------------------------------------
                                 ORCA SCF
-------------------------------------------------------------------------------

------------
SCF SETTINGS
------------
Hamiltonian:
 Density Functional     Method          .... DFT(GTOs)
 Exchange Functional    Exchange        .... B88
   X-Alpha parameter    XAlpha          ....  0.666667
   Becke's b parameter  XBeta           ....  0.004200
 Correlation Functional Correlation     .... LYP
 LDA part of GGA corr.  LDAOpt          .... VWN-5
 Gradients option       PostSCFGGA      .... off
 Hybrid DFT is turned on
   Fraction HF Exchange ScalHFX         ....  0.200000
   Scaling of DF-GGA-X  ScalDFX         ....  0.720000
   Scaling of DF-GGA-C  ScalDFC         ....  0.810000
   Scaling of DF-LDA-C  ScalLDAC        ....  1.000000
   Perturbative correction              ....  0.000000
   Density functional embedding theory  .... OFF
   NL short-range parameter             ....  4.800000
 RI-approximation to the Coulomb term is turned on
   Number of AuxJ basis functions       .... 240
   RIJ-COSX (HFX calculated with COS-X)).... on


General Settings:
 Integral files         IntName         .... acrolien.918
 Hartree-Fock type      HFTyp           .... RHF
 Total Charge           Charge          ....    0
 Multiplicity           Mult            ....    1
 Number of Electrons    NEL             ....   30
 Basis Dimension        Dim             ....   44
 Nuclear Repulsion      ENuc            ....    103.5673151133 Eh

Convergence Acceleration:
 DIIS                   CNVDIIS         .... on
   Start iteration      DIISMaxIt       ....    12
   Startup error        DIISStart       ....  0.200000
   # of expansion vecs  DIISMaxEq       ....     5
   Bias factor          DIISBfac        ....   1.050
   Max. coefficient     DIISMaxC        ....  10.000
 Trust-Rad. Augm. Hess. CNVTRAH         .... auto
   Auto Start mean grad. ratio tolernc. ....  1.125000
   Auto Start start iteration           ....    20
   Auto Start num. interpolation iter.  ....    10
   Max. Number of Micro iterations      ....    16
   Max. Number of Macro iterations      .... Maxiter - #DIIS iter
   Number of Davidson start vectors     ....     2
   Converg. threshold I  (grad. norm)   ....   1.000e-05
   Converg. threshold II (energy diff.) ....   1.000e-08
   Grad. Scal. Fac. for Micro threshold ....   0.100
   Minimum threshold for Micro iter.    ....   0.010
   NR start threshold (gradient norm)   ....   0.001
   Initial trust radius                 ....   0.400
   Minimum AH scaling param. (alpha)    ....   1.000
   Maximum AH scaling param. (alpha)    .... 1000.000
   Orbital update algorithm             .... Taylor
   White noise on init. David. guess    .... on
   Maximum white noise                  ....   0.010
   Quad. conv. algorithm                .... NR
 SOSCF                  CNVSOSCF        .... on
   Start iteration      SOSCFMaxIt      ....   150
   Startup grad/error   SOSCFStart      ....  0.003300
 Level Shifting         CNVShift        .... on
   Level shift para.    LevelShift      ....    0.2500
   Turn off err/grad.   ShiftErr        ....    0.0010
 Zerner damping         CNVZerner       .... off
 Static damping         CNVDamp         .... on
   Fraction old density DampFac         ....    0.7000
   Max. Damping (<1)    DampMax         ....    0.9800
   Min. Damping (>=0)   DampMin         ....    0.0000
   Turn off err/grad.   DampErr         ....    0.1000
 Fernandez-Rico         CNVRico         .... off

SCF Procedure:
 Maximum # iterations   MaxIter         ....   500
 SCF integral mode      SCFMode         .... Direct
   Integral package                     .... SHARK and LIBINT hybrid scheme
 Reset frequency        DirectResetFreq ....    20
 Integral Threshold     Thresh          ....  2.500e-11 Eh
 Primitive CutOff       TCut            ....  2.500e-12 Eh

Convergence Tolerance:
 Convergence Check Mode ConvCheckMode   .... Total+1el-Energy
 Convergence forced     ConvForced      .... 1
 Energy Change          TolE            ....  1.000e-08 Eh
 1-El. energy change                    ....  1.000e-05 Eh
 Orbital Gradient       TolG            ....  1.000e-05
 Orbital Rotation angle TolX            ....  1.000e-05
 DIIS Error             TolErr          ....  5.000e-07


Diagonalization of the overlap matrix:
Smallest eigenvalue                        ... 5.675e-03
Time for diagonalization                   ...    0.059 sec
Threshold for overlap eigenvalues          ... 1.000e-08
Number of eigenvalues below threshold      ... 0
Time for construction of square roots      ...    0.075 sec
Total time needed                          ...    0.134 sec

Time for model grid setup =    0.101 sec

------------------------------
INITIAL GUESS: MODEL POTENTIAL
------------------------------
Loading Hartree-Fock densities                     ... done
Calculating cut-offs                               ... done
Initializing the effective Hamiltonian             ... done
Setting up the integral package (SHARK)            ... done
Starting the Coulomb interaction                   ... done (   0.5 sec)
Reading the grid                                   ... done
Mapping shells                                     ... done
Starting the XC term evaluation                    ... done (   0.0 sec)
  promolecular density results
     # of electrons  =     29.997903185
     EX              =    -24.764847312
     EC              =     -0.996996749
     EX+EC           =    -25.761844062
Transforming the Hamiltonian                       ... done (   0.4 sec)
Diagonalizing the Hamiltonian                      ... done (   0.0 sec)
Back transforming the eigenvectors                 ... done (   0.0 sec)
Now organizing SCF variables                       ... done
                      ------------------
                      INITIAL GUESS DONE (   1.3 sec)
                      ------------------
-------------------
DFT GRID GENERATION
-------------------

General Integration Accuracy     IntAcc      ... 4.388
Radial Grid Type                 RadialGrid  ... OptM3 with GC (2021)
Angular Grid (max. ang.)         AngularGrid ... 4 (Lebedev-302)
Angular grid pruning method      GridPruning ... 4 (adaptive)
Weight generation scheme         WeightScheme... Becke
Basis function cutoff            BFCut       ... 1.0000e-11
Integration weight cutoff        WCut        ... 1.0000e-14
Angular grids for H and He will be reduced by one unit
Partially contracted basis set               ... off
Rotationally invariant grid construction     ... off

Total number of grid points                  ...    37392
Total number of batches                      ...      589
Average number of points per batch           ...       63
Average number of grid points per atom       ...     4674
Time for grid setup =    0.639 sec

--------------------
COSX GRID GENERATION
--------------------

GRIDX 1
-------
General Integration Accuracy     IntAcc      ... 3.816
Radial Grid Type                 RadialGrid  ... OptM3 with GC (2021)
Angular Grid (max. ang.)         AngularGrid ... 1 (Lebedev-50)
Angular grid pruning method      GridPruning ... 4 (adaptive)
Weight generation scheme         WeightScheme... Becke
Basis function cutoff            BFCut       ... 1.0000e-11
Integration weight cutoff        WCut        ... 1.0000e-14
Angular grids for H and He will be reduced by one unit
Partially contracted basis set               ... on
Rotationally invariant grid construction     ... off

Total number of grid points                  ...     4801
Total number of batches                      ...       79
Average number of points per batch           ...       60
Average number of grid points per atom       ...      600
UseSFitting                                  ... on

GRIDX 2
-------
General Integration Accuracy     IntAcc      ... 4.020
Radial Grid Type                 RadialGrid  ... OptM3 with GC (2021)
Angular Grid (max. ang.)         AngularGrid ... 2 (Lebedev-110)
Angular grid pruning method      GridPruning ... 4 (adaptive)
Weight generation scheme         WeightScheme... Becke
Basis function cutoff            BFCut       ... 1.0000e-11
Integration weight cutoff        WCut        ... 1.0000e-14
Angular grids for H and He will be reduced by one unit
Partially contracted basis set               ... on
Rotationally invariant grid construction     ... off

Total number of grid points                  ...    10555
Total number of batches                      ...      169
Average number of points per batch           ...       62
Average number of grid points per atom       ...     1319
UseSFitting                                  ... on

GRIDX 3
-------
General Integration Accuracy     IntAcc      ... 4.338
Radial Grid Type                 RadialGrid  ... OptM3 with GC (2021)
Angular Grid (max. ang.)         AngularGrid ... 3 (Lebedev-194)
Angular grid pruning method      GridPruning ... 4 (adaptive)
Weight generation scheme         WeightScheme... Becke
Basis function cutoff            BFCut       ... 1.0000e-11
Integration weight cutoff        WCut        ... 1.0000e-14
Angular grids for H and He will be reduced by one unit
Partially contracted basis set               ... on
Rotationally invariant grid construction     ... off

Total number of grid points                  ...    23305
Total number of batches                      ...      368
Average number of points per batch           ...       63
Average number of grid points per atom       ...     2913
UseSFitting                                  ... on

Time for X-Grid setup             =    2.076 sec

--------------
SCF ITERATIONS
--------------
ITER       Energy         Delta-E        Max-DP      RMS-DP      [F,P]     Damp
               ***  Starting incremental Fock matrix formation  ***
  0   -191.5426279604   0.000000000000 0.09284296  0.00774999  0.2470837 0.7000
  1   -191.6108142766  -0.068186316222 0.05094894  0.00465988  0.0884931 0.7000
                               ***Turning on DIIS***
  2   -191.6336935897  -0.022879313101 0.06718921  0.00633003  0.0355418 0.0000
  3   -191.6745999766  -0.040906386950 0.03526033  0.00345028  0.0398313 0.0000
  4   -191.6815783233  -0.006978346627 0.01011189  0.00123169  0.0177411 0.0000
                      *** Initiating the SOSCF procedure ***
                           *** Shutting down DIIS ***
                      *** Re-Reading the Fockian *** 
                      *** Removing any level shift *** 
ITER      Energy       Delta-E        Grad      Rot      Max-DP    RMS-DP
  5   -191.68272018  -0.0011418544  0.000864  0.000864  0.003526  0.000317
               *** Restarting incremental Fock matrix formation ***
  6   -191.68273752  -0.0000173431  0.000632  0.002015  0.001763  0.000176
  7   -191.68273377   0.0000037541  0.000958  0.001001  0.001109  0.000092
  8   -191.68274120  -0.0000074284  0.000116  0.000287  0.000428  0.000033
  9   -191.68274094   0.0000002551  0.000190  0.000198  0.000243  0.000022
 10   -191.68274134  -0.0000004009  0.000033  0.000104  0.000093  0.000012
 11   -191.68274133   0.0000000125  0.000031  0.000051  0.000056  0.000007
                  ***Gradient check signals convergence***
              ***Rediagonalizing the Fockian in SOSCF/NRSCF***

               *****************************************************
               *                     SUCCESS                       *
               *           SCF CONVERGED AFTER  12 CYCLES          *
               *****************************************************

Old exchange energy                            =     -5.029243366 Eh
New exchange energy                            =     -5.029248044 Eh
Exchange energy change after final integration =     -0.000004677 Eh
Total energy after final integration           =   -191.682746034 Eh
Final COS-X integration done in                =     0.801 sec

----------------
TOTAL SCF ENERGY
----------------

Total Energy       :         -191.68274603 Eh           -5215.95269 eV

Components:
Nuclear Repulsion  :          103.56731511 Eh            2818.20992 eV
Electronic Energy  :         -295.25006115 Eh           -8034.16261 eV
One Electron Energy:         -463.87583565 Eh          -12622.70321 eV
Two Electron Energy:          168.62577450 Eh            4588.54060 eV
Max COSX asymmetry :            0.00000056 Eh               0.00002 eV

Virial components:
Potential Energy   :         -382.76912479 Eh          -10415.67741 eV
Kinetic Energy     :          191.08637876 Eh            5199.72471 eV
Virial Ratio       :            2.00312093


DFT components:
N(Alpha)           :       14.999999466286 electrons
N(Beta)            :       14.999999466286 electrons
N(Total)           :       29.999998932572 electrons
E(X)               :      -20.018465124870 Eh       
E(C)               :       -1.184662476456 Eh       
E(XC)              :      -21.203127601327 Eh       
DFET-embed. en.    :        0.000000000000 Eh       

---------------
SCF CONVERGENCE
---------------

  Last Energy change         ...   -2.8836e-08  Tolerance :   1.0000e-08
  Last MAX-Density change    ...    2.6645e-15  Tolerance :   1.0000e-07
  Last RMS-Density change    ...    9.6961e-17  Tolerance :   5.0000e-09
  Last Orbital Gradient      ...    1.0797e-06  Tolerance :   1.0000e-05
  Last Orbital Rotation      ...    3.1361e-06  Tolerance :   1.0000e-05

             **** THE GBW FILE WAS UPDATED (acrolien.918.gbw) ****
             **** DENSITY acrolien.918.scfp WAS UPDATED ****
             **** ENERGY FILE WAS UPDATED (acrolien.918.en.tmp) ****
             **** THE GBW FILE WAS UPDATED (acrolien.918.gbw) ****
             **** DENSITY acrolien.918.scfp WAS UPDATED ****
----------------
ORBITAL ENERGIES
----------------

  NO   OCC          E(Eh)            E(eV) 
   0   2.0000     -19.153906      -521.2043 
   1   2.0000     -10.280274      -279.7405 
   2   2.0000     -10.219105      -278.0760 
   3   2.0000     -10.193122      -277.3690 
   4   2.0000      -1.062570       -28.9140 
   5   2.0000      -0.816539       -22.2192 
   6   2.0000      -0.664487       -18.0816 
   7   2.0000      -0.586118       -15.9491 
   8   2.0000      -0.501821       -13.6552 
   9   2.0000      -0.482204       -13.1214 
  10   2.0000      -0.430946       -11.7266 
  11   2.0000      -0.388206       -10.5636 
  12   2.0000      -0.374898       -10.2015 
  13   2.0000      -0.294557        -8.0153 
  14   2.0000      -0.254959        -6.9378 
  15   0.0000      -0.060014        -1.6331 
  16   0.0000       0.019000         0.5170 
  17   0.0000       0.094178         2.5627 
  18   0.0000       0.138753         3.7757 
  19   0.0000       0.146959         3.9990 
  20   0.0000       0.187842         5.1114 
  21   0.0000       0.276227         7.5165 
  22   0.0000       0.322935         8.7875 
  23   0.0000       0.361736         9.8433 
  24   0.0000       0.511938        13.9305 
  25   0.0000       0.538053        14.6412 
  26   0.0000       0.555268        15.1096 
  27   0.0000       0.589853        16.0507 
  28   0.0000       0.635290        17.2871 
  29   0.0000       0.670409        18.2428 
  30   0.0000       0.702237        19.1088 
  31   0.0000       0.726306        19.7638 
  32   0.0000       0.783338        21.3157 
  33   0.0000       0.820997        22.3405 
  34   0.0000       0.889354        24.2005 
  35   0.0000       0.926660        25.2157 
  36   0.0000       0.953508        25.9463 
  37   0.0000       0.998402        27.1679 
  38   0.0000       1.050299        28.5801 
  39   0.0000       1.079957        29.3871 
  40   0.0000       1.129968        30.7480 
  41   0.0000       1.166350        31.7380 
  42   0.0000       1.249932        34.0124 
  43   0.0000       1.690174        45.9920 

                    ********************************
                    * MULLIKEN POPULATION ANALYSIS *
                    ********************************

-----------------------
MULLIKEN ATOMIC CHARGES
-----------------------
   0 C :    0.144333
   1 O :   -0.362334
   2 C :   -0.049820
   3 C :   -0.261989
   4 H :    0.113497
   5 H :    0.135519
   6 H :    0.121480
   7 H :    0.159314
Sum of atomic charges:   -0.0000000

--------------------------------
MULLIKEN REDUCED ORBITAL CHARGES
--------------------------------
  0 C s       :     3.192003  s :     3.192003
      pz      :     0.953486  p :     2.663664
      px      :     0.883025
      py      :     0.827153
  1 O s       :     3.952249  s :     3.952249
      pz      :     1.602031  p :     4.410085
      px      :     1.460859
      py      :     1.347195
  2 C s       :     3.136177  s :     3.136177
      pz      :     0.983091  p :     2.913642
      px      :     0.932081
      py      :     0.998471
  3 C s       :     3.282379  s :     3.282379
      pz      :     0.974389  p :     2.979610
      px      :     0.996849
      py      :     1.008372
  4 H s       :     0.886503  s :     0.886503
  5 H s       :     0.864481  s :     0.864481
  6 H s       :     0.878520  s :     0.878520
  7 H s       :     0.840686  s :     0.840686


                     *******************************
                     * LOEWDIN POPULATION ANALYSIS *
                     *******************************

----------------------
LOEWDIN ATOMIC CHARGES
----------------------
   0 C :    0.125030
   1 O :   -0.232375
   2 C :   -0.163832
   3 C :   -0.165674
   4 H :    0.078850
   5 H :    0.122877
   6 H :    0.108557
   7 H :    0.126567

-------------------------------
LOEWDIN REDUCED ORBITAL CHARGES
-------------------------------
  0 C s       :     2.976796  s :     2.976796
      pz      :     1.064666  p :     2.898175
      px      :     0.965278
      py      :     0.868231
  1 O s       :     3.648186  s :     3.648186
      pz      :     1.692121  p :     4.584190
      px      :     1.514208
      py      :     1.377860
  2 C s       :     2.929685  s :     2.929685
      pz      :     1.048765  p :     3.234147
      px      :     1.097470
      py      :     1.087912
  3 C s       :     3.004472  s :     3.004472
      pz      :     1.005138  p :     3.161201
      px      :     1.104174
      py      :     1.051889
  4 H s       :     0.921150  s :     0.921150
  5 H s       :     0.877123  s :     0.877123
  6 H s       :     0.891443  s :     0.891443
  7 H s       :     0.873433  s :     0.873433


                      *****************************
                      * MAYER POPULATION ANALYSIS *
                      *****************************

  NA   - Mulliken gross atomic population
  ZA   - Total nuclear charge
  QA   - Mulliken gross atomic charge
  VA   - Mayer's total valence
  BVA  - Mayer's bonded valence
  FA   - Mayer's free valence

  ATOM       NA         ZA         QA         VA         BVA        FA
  0 C      5.8557     6.0000     0.1443     3.7658     3.7658    -0.0000
  1 O      8.3623     8.0000    -0.3623     1.9938     1.9938    -0.0000
  2 C      6.0498     6.0000    -0.0498     3.7601     3.7601    -0.0000
  3 C      6.2620     6.0000    -0.2620     3.8747     3.8747    -0.0000
  4 H      0.8865     1.0000     0.1135     0.9289     0.9289    -0.0000
  5 H      0.8645     1.0000     0.1355     0.9344     0.9344     0.0000
  6 H      0.8785     1.0000     0.1215     0.9550     0.9550    -0.0000
  7 H      0.8407     1.0000     0.1593     0.9341     0.9341    -0.0000

  Mayer bond orders larger than 0.100000
B(  0-C ,  1-O ) :   1.8899 B(  0-C ,  2-C ) :   0.9505 B(  0-C ,  4-H ) :   0.8886 
B(  2-C ,  3-C ) :   1.9150 B(  2-C ,  5-H ) :   0.9378 B(  3-C ,  6-H ) :   0.9499 
B(  3-C ,  7-H ) :   0.9349 

-------
TIMINGS
-------

Total SCF time: 0 days 0 hours 0 min 46 sec 

Total time                  ....      46.252 sec
Sum of individual times     ....      38.074 sec  ( 82.3%)

Fock matrix formation       ....      33.656 sec  ( 72.8%)
  Split-RI-J                ....       0.581 sec  (  1.7% of F)
  Chain of spheres X        ....       4.468 sec  ( 13.3% of F)
  XC integration            ....       9.754 sec  ( 29.0% of F)
    Basis function eval.    ....       0.931 sec  (  9.5% of XC)
    Density eval.           ....       0.369 sec  (  3.8% of XC)
    XC-Functional eval.     ....       0.549 sec  (  5.6% of XC)
    XC-Potential eval.      ....       0.237 sec  (  2.4% of XC)
Diagonalization             ....       0.003 sec  (  0.0%)
Density matrix formation    ....       0.000 sec  (  0.0%)
Population analysis         ....       0.002 sec  (  0.0%)
Initial guess               ....       1.159 sec  (  2.5%)
Orbital Transformation      ....       0.000 sec  (  0.0%)
Orbital Orthonormalization  ....       0.000 sec  (  0.0%)
DIIS solution               ....       0.001 sec  (  0.0%)
SOSCF solution              ....       0.437 sec  (  0.9%)
Grid generation             ....       2.815 sec  (  6.1%)

Maximum memory used throughout the entire SCF-calculation: 46.7 MB
------------------------------------------------------------------------------
                        ORCA TD-DFT/TDA CALCULATION
------------------------------------------------------------------------------

Input orbitals are from        ... acrolien.918.gbw
CI-vector output               ... acrolien.918.cis
Tamm-Dancoff approximation     ... operative
CIS-Integral strategy          ... AO-integrals
Integral handling              ... AO integral Direct
Max. core memory used          ... 512 MB
Reference state                ... RHF
Generation of triplets         ... off
Follow IRoot                   ... off
Number of operators            ... 1
Orbital ranges used for CIS calculation:
 Operator 0:  Orbitals   4... 14  to  15... 43
XAS localization array:
 Operator 0:  Orbitals  -1... -1

-------------------
XC-INTEGRATION GRID
-------------------

General Integration Accuracy     IntAcc      ... 3.467
Radial Grid Type                 RadialGrid  ... OptM3 with GC (2021)
Angular Grid (max. ang.)         AngularGrid ... 1 (Lebedev-50)
Angular grid pruning method      GridPruning ... 4 (adaptive)
Weight generation scheme         WeightScheme... Becke
Basis function cutoff            BFCut       ... 1.0000e-11
Integration weight cutoff        WCut        ... 1.0000e-14
Angular grids for H and He will be reduced by one unit
Partially contracted basis set               ... off
Rotationally invariant grid construction     ... off

Total number of grid points                  ...     5492
Total number of batches                      ...       90
Average number of points per batch           ...       61
Average number of grid points per atom       ...      686

---------------------
COSX-INTEGRATION GRID
---------------------

General Integration Accuracy     IntAcc      ... 3.067
Radial Grid Type                 RadialGrid  ... OptM3 with GC (2021)
Angular Grid (max. ang.)         AngularGrid ... 1 (Lebedev-50)
Angular grid pruning method      GridPruning ... 4 (adaptive)
Weight generation scheme         WeightScheme... Becke
Basis function cutoff            BFCut       ... 1.0000e-11
Integration weight cutoff        WCut        ... 1.0000e-14
Angular grids for H and He will be reduced by one unit
Partially contracted basis set               ... on
Rotationally invariant grid construction     ... off

Total number of grid points                  ...     2509
Total number of batches                      ...       45
Average number of points per batch           ...       55
Average number of grid points per atom       ...      314

---------------
TD-DFT XC SETUP
---------------

DFT calculation                         ... on
Name of the grid file                   ... acrolien.918.grid_cis.tmp
Exchange functional (TD-DFT)            ... B88
   X-Alpha parameter    XAlpha (TD-DFT) ...  0.666667
   Becke's b parameter  XBeta (TD-DFT)  ...  0.004200
Correlation functional (TD-DFT)         ... LYP
 LDA part of GGA corr.  LDAOpt (TD-DFT) ... VWN-5
Hybrid DFT                              ... on
   Exchange mixing (TD-DFT)             ...  0.200
   GGA exch. scaling (TD-DFT)           ...  0.720
   GGA corr. scaling (TD-DFT)           ...  0.810

Building densities             ... done
Calculating rho(r) on the grid ... done
Building xc-kernel on the grid ... done
                    *** TD-DFT CALCULATION INITIALIZED ***

------------------------
DAVIDSON-DIAGONALIZATION
------------------------

Dimension of the eigenvalue problem            ...    319
Number of roots to be determined               ...      1
Maximum size of the expansion space            ...     10
Maximum number of iterations                   ...    100
Convergence tolerance for the residual         ...    2.500e-07
Convergence tolerance for the energies         ...    2.500e-07
Orthogonality tolerance                        ...    1.000e-14
Level Shift                                    ...    0.000e+00
Constructing the preconditioner                ... o.k.
Building the initial guess                     ... o.k.
Number of trial vectors determined             ...     10


                       ****Iteration    0****

   Memory handling for direct AO based CIS:
   Memory per vector needed      ...     1 MB
   Memory needed                 ...     0 MB
   Memory available              ...   512 MB
   Number of vectors per batch   ...   512
   Number of batches             ...     1
   Time for densities:            0.000
   Time for RI-J (Direct):        0.043
   Time for K (COSX):             1.001
   Time for XC-Integration:       0.040
   Time for Sigma-Completion:     0.000
   Size of expansion space: 3
   Lowest Energy          :     0.133482072040
   Maximum Energy change  :     0.133482072040 (vector 0)
   Maximum residual norm  :     0.001194023837

                       ****Iteration    1****
   Time for densities:            0.000
   Time for RI-J (Direct):        0.034
   Time for K (COSX):             0.528
   Time for XC-Integration:       0.022
   Time for Sigma-Completion:     0.000
   Size of expansion space: 4
   Lowest Energy          :     0.132106167188
   Maximum Energy change  :     0.001375904852 (vector 0)
   Maximum residual norm  :     0.000296936230

                       ****Iteration    2****
   Time for densities:            0.000
   Time for RI-J (Direct):        0.034
   Time for K (COSX):             0.365
   Time for XC-Integration:       0.022
   Time for Sigma-Completion:     0.000
   Size of expansion space: 5
   Lowest Energy          :     0.131766075353
   Maximum Energy change  :     0.000340091834 (vector 0)
   Maximum residual norm  :     0.000015111832

                       ****Iteration    3****
   Time for densities:            0.000
   Time for RI-J (Direct):        0.036
   Time for K (COSX):             0.511
   Time for XC-Integration:       0.022
   Time for Sigma-Completion:     0.000
   Size of expansion space: 6
   Lowest Energy          :     0.131748297562
   Maximum Energy change  :     0.000017777792 (vector 0)
   Maximum residual norm  :     0.000000636520

                       ****Iteration    4****
   Time for densities:            0.000
   Time for RI-J (Direct):        0.034
   Time for K (COSX):             0.422
   Time for XC-Integration:       0.022
   Time for Sigma-Completion:     0.000
   Size of expansion space: 7
   Lowest Energy          :     0.131747364621
   Maximum Energy change  :     0.000000932941 (vector 0)
   Maximum residual norm  :     0.000000032326

      *** CONVERGENCE OF RESIDUAL NORM REACHED ***

Storing the converged CI vectors               ... acrolien.918.cis1

                 *** DAVIDSON DONE ***

Total time for solving the CIS problem:     4.746sec

------------------------------------
TD-DFT/TDA EXCITED STATES (SINGLETS)
------------------------------------

the weight of the individual excitations are printed if larger than 1.0e-02

STATE  1:  E=   0.131747 au      3.585 eV    28915.2 cm**-1 <S**2> =   0.000000
    14a ->  15a  :     0.964712 (c=  0.98219754)
    14a ->  16a  :     0.029995 (c= -0.17319054)


-----------------------------
TD-DFT/TDA-EXCITATION SPECTRA
-----------------------------

Center of mass = ( -0.9655, -0.2493,  0.5081)
Calculating the Dipole integrals                  ... done
Transforming integrals                            ... done
Calculating the Linear Momentum integrals         ... done
Transforming integrals                            ... done
Calculating angular momentum integrals            ... done
Transforming integrals                            ... done

-----------------------------------------------------------------------------
         ABSORPTION SPECTRUM VIA TRANSITION ELECTRIC DIPOLE MOMENTS
-----------------------------------------------------------------------------
State   Energy    Wavelength  fosc         T2        TX        TY        TZ  
        (cm-1)      (nm)                 (au**2)    (au)      (au)      (au) 
-----------------------------------------------------------------------------
   1   28915.2    345.8   0.000505094   0.00575   0.00050  -0.02490  -0.07163

-----------------------------------------------------------------------------
         ABSORPTION SPECTRUM VIA TRANSITION VELOCITY DIPOLE MOMENTS
-----------------------------------------------------------------------------
State   Energy    Wavelength   fosc        P2         PX        PY        PZ  
        (cm-1)      (nm)                 (au**2)     (au)      (au)      (au) 
-----------------------------------------------------------------------------
   1   28915.2    345.8   0.001375010   0.00027   0.01237   0.00024  -0.01089

-------------------------------------------------------------------
                             CD SPECTRUM
-------------------------------------------------------------------
State  Energy     Wavelength     R         MX        MY        MZ   
       (cm-1)       (nm)     (1e40*cgs)   (au)      (au)      (au)  
-------------------------------------------------------------------
   1   28915.2    345.8     -7.64657  -0.28061  -0.22378   0.30224

-------------------------------------------------------------------
         CD SPECTRUM VIA TRANSITION VELOCITY DIPOLE MOMENTS        
-------------------------------------------------------------------
State  Energy     Wavelength     R         MX        MY        MZ   
       (cm-1)       (nm)     (1e40*cgs)   (au)      (au)      (au)  
-------------------------------------------------------------------
   1   28915.2    345.8    -24.39171  -0.28061  -0.22378   0.30224

Total run time:        9.770 sec

           *** ORCA-CIS/TD-DFT FINISHED WITHOUT ERROR ***

Maximum memory used throughout the entire CIS-calculation: 42.9 MB

-----------------------
CIS/TD-DFT TOTAL ENERGY
-----------------------

    E(SCF)  =   -191.682746034 Eh
    DE(CIS) =      0.131747365 Eh (Root  1)
    ----------------------------- ---------
    E(tot)  =   -191.550998670 Eh


-------------------------   --------------------
FINAL SINGLE POINT ENERGY      -191.550998669707
-------------------------   --------------------


                            ***************************************
                            *     ORCA property calculations      *
                            ***************************************

                                    ---------------------
                                    Active property flags
                                    ---------------------
   (+) Dipole Moment


------------------------------------------------------------------------------
                       ORCA ELECTRIC PROPERTIES CALCULATION
------------------------------------------------------------------------------

Dipole Moment Calculation                       ... on
Quadrupole Moment Calculation                   ... off
Polarizability Calculation                      ... off
GBWName                                         ... acrolien.918.gbw
Electron density                                ... acrolien.918.scfp
The origin for moment calculation is the CENTER OF MASS  = (-0.965505, -0.249258  0.508150)

-------------
DIPOLE MOMENT
-------------
                                X             Y             Z
Electronic contribution:     -2.77703      -0.30886       1.40088
Nuclear contribution   :      3.68065       0.83935      -1.96412
                        -----------------------------------------
Total Dipole Moment    :      0.90362       0.53049      -0.56323
                        -----------------------------------------
Magnitude (a.u.)       :      1.18962
Magnitude (Debye)      :      3.02376



--------------------
Rotational spectrum 
--------------------
 
Rotational constants in cm-1:     1.344387     0.154755     0.149401 
Rotational constants in MHz : 40303.698331  4639.445301  4478.930026 

 Dipole components along the rotational axes: 
x,y,z [a.u.] :    -1.136109    -0.062804     0.347127 
x,y,z [Debye]:    -2.887760    -0.159636     0.882327 

 

Timings for individual modules:

Sum of individual times         ...       58.209 sec (=   0.970 min)
GTO integral calculation        ...        1.664 sec (=   0.028 min)   2.9 %
SCF iterations                  ...       46.762 sec (=   0.779 min)  80.3 %
CIS module                      ...        9.784 sec (=   0.163 min)  16.8 %
                             ****ORCA TERMINATED NORMALLY****
TOTAL RUN TIME: 0 days 0 hours 1 minutes 1 seconds 341 msec
