
                                 *****************
                                 * O   R   C   A *
                                 *****************

                                            #,                                       
                                            ###                                      
                                            ####                                     
                                            #####                                    
                                            ######                                   
                                           ########,                                 
                                     ,,################,,,,,                         
                               ,,#################################,,                 
                          ,,##########################################,,             
                       ,#########################################, ''#####,          
                    ,#############################################,,   '####,        
                  ,##################################################,,,,####,       
                ,###########''''           ''''###############################       
              ,#####''   ,,,,##########,,,,          '''####'''          '####       
            ,##' ,,,,###########################,,,                        '##       
           ' ,,###''''                  '''############,,,                           
         ,,##''                                '''############,,,,        ,,,,,,###''
      ,#''                                            '''#######################'''  
     '                                                          ''''####''''         
             ,#######,   #######,   ,#######,      ##                                
            ,#'     '#,  ##    ##  ,#'     '#,    #''#        ######   ,####,        
            ##       ##  ##   ,#'  ##            #'  '#       #        #'  '#        
            ##       ##  #######   ##           ,######,      #####,   #    #        
            '#,     ,#'  ##    ##  '#,     ,#' ,#      #,         ##   #,  ,#        
             '#######'   ##     ##  '#######'  #'      '#     #####' # '####'        



                  #######################################################
                  #                        -***-                        #
                  #          Department of theory and spectroscopy      #
                  #    Directorship and core code : Frank Neese         #
                  #        Max Planck Institute fuer Kohlenforschung    #
                  #                Kaiser Wilhelm Platz 1               #
                  #                 D-45470 Muelheim/Ruhr               #
                  #                      Germany                        #
                  #                                                     #
                  #                  All rights reserved                #
                  #                        -***-                        #
                  #######################################################


                         Program Version 5.0.3 -  RELEASE  -


 With contributions from (in alphabetic order):
   Daniel Aravena         : Magnetic Suceptibility
   Michael Atanasov       : Ab Initio Ligand Field Theory (pilot matlab implementation)
   Alexander A. Auer      : GIAO ZORA, VPT2 properties, NMR spectrum
   Ute Becker             : Parallelization
   Giovanni Bistoni       : ED, misc. LED, open-shell LED, HFLD
   Martin Brehm           : Molecular dynamics
   Dmytro Bykov           : SCF Hessian
   Vijay G. Chilkuri      : MRCI spin determinant printing, contributions to CSF-ICE
   Dipayan Datta          : RHF DLPNO-CCSD density
   Achintya Kumar Dutta   : EOM-CC, STEOM-CC
   Dmitry Ganyushin       : Spin-Orbit,Spin-Spin,Magnetic field MRCI
   Miquel Garcia          : C-PCM and meta-GGA Hessian, CC/C-PCM, Gaussian charge scheme
   Yang Guo               : DLPNO-NEVPT2, F12-NEVPT2, CIM, IAO-localization
   Andreas Hansen         : Spin unrestricted coupled pair/coupled cluster methods
   Benjamin Helmich-Paris : MC-RPA, TRAH-SCF, COSX integrals
   Lee Huntington         : MR-EOM, pCC
   Robert Izsak           : Overlap fitted RIJCOSX, COSX-SCS-MP3, EOM
   Marcus Kettner         : VPT2
   Christian Kollmar      : KDIIS, OOCD, Brueckner-CCSD(T), CCSD density, CASPT2, CASPT2-K
   Simone Kossmann        : Meta GGA functionals, TD-DFT gradient, OOMP2, MP2 Hessian
   Martin Krupicka        : Initial AUTO-CI
   Lucas Lang             : DCDCAS
   Marvin Lechner         : AUTO-CI (C++ implementation), FIC-MRCC
   Dagmar Lenk            : GEPOL surface, SMD
   Dimitrios Liakos       : Extrapolation schemes; Compound Job, initial MDCI parallelization
   Dimitrios Manganas     : Further ROCIS development; embedding schemes
   Dimitrios Pantazis     : SARC Basis sets
   Anastasios Papadopoulos: AUTO-CI, single reference methods and gradients
   Taras Petrenko         : DFT Hessian,TD-DFT gradient, ASA, ECA, R-Raman, ABS, FL, XAS/XES, NRVS
   Peter Pinski           : DLPNO-MP2, DLPNO-MP2 Gradient
   Christoph Reimann      : Effective Core Potentials
   Marius Retegan         : Local ZFS, SOC
   Christoph Riplinger    : Optimizer, TS searches, QM/MM, DLPNO-CCSD(T), (RO)-DLPNO pert. Triples
   Tobias Risthaus        : Range-separated hybrids, TD-DFT gradient, RPA, STAB
   Michael Roemelt        : Original ROCIS implementation
   Masaaki Saitow         : Open-shell DLPNO-CCSD energy and density
   Barbara Sandhoefer     : DKH picture change effects
   Avijit Sen             : IP-ROCIS
   Kantharuban Sivalingam : CASSCF convergence, NEVPT2, FIC-MRCI
   Bernardo de Souza      : ESD, SOC TD-DFT
   Georgi Stoychev        : AutoAux, RI-MP2 NMR, DLPNO-MP2 response
   Willem Van den Heuvel  : Paramagnetic NMR
   Boris Wezisla          : Elementary symmetry handling
   Frank Wennmohs         : Technical directorship


 We gratefully acknowledge several colleagues who have allowed us to
 interface, adapt or use parts of their codes:
   Stefan Grimme, W. Hujo, H. Kruse, P. Pracht,  : VdW corrections, initial TS optimization,
                  C. Bannwarth, S. Ehlert          DFT functionals, gCP, sTDA/sTD-DF
   Ed Valeev, F. Pavosevic, A. Kumar             : LibInt (2-el integral package), F12 methods
   Garnet Chan, S. Sharma, J. Yang, R. Olivares  : DMRG
   Ulf Ekstrom                                   : XCFun DFT Library
   Mihaly Kallay                                 : mrcc  (arbitrary order and MRCC methods)
   Jiri Pittner, Ondrej Demel                    : Mk-CCSD
   Frank Weinhold                                : gennbo (NPA and NBO analysis)
   Christopher J. Cramer and Donald G. Truhlar   : smd solvation model
   Lars Goerigk                                  : TD-DFT with DH, B97 family of functionals
   V. Asgeirsson, H. Jonsson                     : NEB implementation
   FAccTs GmbH                                   : IRC, NEB, NEB-TS, DLPNO-Multilevel, CI-OPT
                                                   MM, QMMM, 2- and 3-layer-ONIOM, Crystal-QMMM,
                                                   LR-CPCM, SF, NACMEs, symmetry and pop. for TD-DFT,
                                                   nearIR, NL-DFT gradient (VV10), updates on ESD,
                                                   ML-optimized integration grids
   S Lehtola, MJT Oliveira, MAL Marques          : LibXC Library
   Liviu Ungur et al                             : ANISO software


 Your calculation uses the libint2 library for the computation of 2-el integrals
 For citations please refer to: http://libint.valeyev.net

 Your ORCA version has been built with support for libXC version: 5.1.0
 For citations please refer to: https://tddft.org/programs/libxc/

 This ORCA versions uses:
   CBLAS   interface :  Fast vector & matrix operations
   LAPACKE interface :  Fast linear algebra routines
   SCALAPACK package :  Parallel linear algebra routines
   Shared memory     :  Shared parallel matrices
   BLAS/LAPACK       :  OpenBLAS 0.3.15  USE64BITINT DYNAMIC_ARCH NO_AFFINITY Haswell SINGLE_THREADED
        Core in use  :  Haswell
   Copyright (c) 2011-2014, The OpenBLAS Project


================================================================================

----- Orbital basis set information -----
Your calculation utilizes the basis: 6-31G
   H-He, Li-Ne : W. J. Hehre, R. Ditchfield and J.A. Pople, J. Chem. Phys. 56, 2257 (1972).
                 Note: He and Ne are unpublished basis sets taken from the Gaussian program.
                 Note: Li and B from J. D. Dill and J. A. Pople, J. Chem. Phys. 62, 2921 (1975).
   Na - Ar     : M. M. Francl, W. J. Pietro, W. J. Hehre, J. S. Binkley, M. S. Gordon, 
                 D. J. DeFrees and J. A. Pople, J. Chem. Phys. 77, 3654 (1982).
   K - Zn      : V. A. Rassolov, J. A. Pople, M. A. Ratner, and T. L. Windus, J. Chem. Phys. 109, 1223 (1998).

----- AuxJ basis set information -----
Your calculation utilizes the auxiliary basis: def2/J
   F. Weigend, Phys. Chem. Chem. Phys. 8, 1057 (2006).

================================================================================
                                        WARNINGS
                       Please study these warnings very carefully!
================================================================================

INFO   : Checking CIS options ...

INFO   : the flag for use of the SHARK integral package has been found!

================================================================================
                                       INPUT FILE
================================================================================
NAME = acrolien.70.com
|  1> ! B3LYP 6-31G
|  2> !TightSCF
|  3> %scf
|  4>  ConvForced true
|  5>  convergence tight
|  6>  MaxIter 500
|  7> end
|  8>  
|  9> %tddft 
| 10>  nroots 1
| 11> end
| 12> 
| 13> # 	27876
| 14> * xyz 0 1
| 15> 		C   -0.539244  -0.453943  -0.015785
| 16> 		O   -0.665583  -1.669908  -0.004146
| 17> 		C    0.663594   0.375852   0.080913
| 18> 		C    1.889914  -0.041909  -0.041392
| 19> 		H   -1.393488   0.227435  -0.091087
| 20> 		H    0.412339   1.369057  -0.245031
| 21> 		H    1.941769  -1.087112   0.199232
| 22> 		H    2.570926   0.662747  -0.097306
| 23> *
| 24> 
| 25>                          ****END OF INPUT****
================================================================================

                       ****************************
                       * Single Point Calculation *
                       ****************************

---------------------------------
CARTESIAN COORDINATES (ANGSTROEM)
---------------------------------
  C     -0.539244   -0.453943   -0.015785
  O     -0.665583   -1.669908   -0.004146
  C      0.663594    0.375852    0.080913
  C      1.889914   -0.041909   -0.041392
  H     -1.393488    0.227435   -0.091087
  H      0.412339    1.369057   -0.245031
  H      1.941769   -1.087112    0.199232
  H      2.570926    0.662747   -0.097306

----------------------------
CARTESIAN COORDINATES (A.U.)
----------------------------
  NO LB      ZA    FRAG     MASS         X           Y           Z
   0 C     6.0000    0    12.011   -1.019023   -0.857828   -0.029829
   1 O     8.0000    0    15.999   -1.257770   -3.155669   -0.007835
   2 C     6.0000    0    12.011    1.254011    0.710257    0.152903
   3 C     6.0000    0    12.011    3.571420   -0.079197   -0.078220
   4 H     1.0000    0     1.008   -2.633311    0.429790   -0.172129
   5 H     1.0000    0     1.008    0.779208    2.587143   -0.463041
   6 H     1.0000    0     1.008    3.669412   -2.054344    0.376494
   7 H     1.0000    0     1.008    4.858346    1.252410   -0.183882

--------------------------------
INTERNAL COORDINATES (ANGSTROEM)
--------------------------------
 C      0   0   0     0.000000000000     0.00000000     0.00000000
 O      1   0   0     1.222566108833     0.00000000     0.00000000
 C      1   2   0     1.464489501319   130.37583582     0.00000000
 C      3   1   2     1.301285329413   125.86737806    13.38837217
 H      1   2   3     1.095298672337   122.60149316   181.10694382
 H      3   1   2     1.075092897468   108.14866859   163.98015728
 H      4   3   1     1.073796145276   109.69033307   335.53370317
 H      4   3   1     0.981551729598   115.38657434   170.30543763

---------------------------
INTERNAL COORDINATES (A.U.)
---------------------------
 C      0   0   0     0.000000000000     0.00000000     0.00000000
 O      1   0   0     2.310315126308     0.00000000     0.00000000
 C      1   2   0     2.767484083495   130.37583582     0.00000000
 C      3   1   2     2.459072894680   125.86737806    13.38837217
 H      1   2   3     2.069814525565   122.60149316   181.10694382
 H      3   1   2     2.031631144738   108.14866859   163.98015728
 H      4   3   1     2.029180638232   109.69033307   335.53370317
 H      4   3   1     1.854863955216   115.38657434   170.30543763

---------------------
BASIS SET INFORMATION
---------------------
There are 3 groups of distinct atoms

 Group   1 Type C   : 10s4p contracted to 3s2p pattern {631/31}
 Group   2 Type O   : 10s4p contracted to 3s2p pattern {631/31}
 Group   3 Type H   : 4s contracted to 2s pattern {31}

Atom   0C    basis set group =>   1
Atom   1O    basis set group =>   2
Atom   2C    basis set group =>   1
Atom   3C    basis set group =>   1
Atom   4H    basis set group =>   3
Atom   5H    basis set group =>   3
Atom   6H    basis set group =>   3
Atom   7H    basis set group =>   3
---------------------------------
AUXILIARY/J BASIS SET INFORMATION
---------------------------------
There are 3 groups of distinct atoms

 Group   1 Type C   : 12s5p4d2f1g contracted to 6s4p3d1f1g pattern {711111/2111/211/2/1}
 Group   2 Type O   : 12s5p4d2f1g contracted to 6s4p3d1f1g pattern {711111/2111/211/2/1}
 Group   3 Type H   : 5s2p1d contracted to 3s1p1d pattern {311/2/1}

Atom   0C    basis set group =>   1
Atom   1O    basis set group =>   2
Atom   2C    basis set group =>   1
Atom   3C    basis set group =>   1
Atom   4H    basis set group =>   3
Atom   5H    basis set group =>   3
Atom   6H    basis set group =>   3
Atom   7H    basis set group =>   3
------------------------------------------------------------------------------
                           ORCA GTO INTEGRAL CALCULATION
                           -- RI-GTO INTEGRALS CHOSEN --
------------------------------------------------------------------------------
------------------------------------------------------------------------------
                   ___                                                        
                  /   \      - P O W E R E D   B Y -                         
                 /     \                                                     
                 |  |  |   _    _      __       _____    __    __             
                 |  |  |  | |  | |    /  \     |  _  \  |  |  /  |          
                  \  \/   | |  | |   /    \    | | | |  |  | /  /          
                 / \  \   | |__| |  /  /\  \   | |_| |  |  |/  /          
                |  |  |   |  __  | /  /__\  \  |    /   |      \           
                |  |  |   | |  | | |   __   |  |    \   |  |\   \          
                \     /   | |  | | |  |  |  |  | |\  \  |  | \   \       
                 \___/    |_|  |_| |__|  |__|  |_| \__\ |__|  \__/        
                                                                              
                      - O R C A' S   B I G   F R I E N D -                    
                                      &                                       
                       - I N T E G R A L  F E E D E R -                       
                                                                              
 v1 FN, 2020, v2 2021                                                         
------------------------------------------------------------------------------


Reading SHARK input file acrolien.70.SHARKINP.tmp ... ok
----------------------
SHARK INTEGRAL PACKAGE
----------------------

Number of atoms                             ...      8
Number of basis functions                   ...     44
Number of shells                            ...     28
Maximum angular momentum                    ...      1
Integral batch strategy                     ... SHARK/LIBINT Hybrid
RI-J (if used) integral strategy            ... SPLIT-RIJ (Revised 2003 algorithm where possible)
Printlevel                                  ...      1
Contraction scheme used                     ... SEGMENTED contraction
Coulomb Range Separation                    ... NOT USED
Exchange Range Separation                   ... NOT USED
Finite Nucleus Model                        ... NOT USED
Auxiliary Coulomb fitting basis             ... AVAILABLE
   # of basis functions in Aux-J            ...    240
   # of shells in Aux-J                     ...     80
   Maximum angular momentum in Aux-J        ...      4
Auxiliary J/K fitting basis                 ... NOT available
Auxiliary Correlation fitting basis         ... NOT available
Auxiliary 'external' fitting basis          ... NOT available
Integral threshold                          ...     2.500000e-11
Primitive cut-off                           ...     2.500000e-12
Primitive pair pre-selection threshold      ...     2.500000e-12

Calculating pre-screening integrals         ... done (  0.0 sec) Dimension = 28
Organizing shell pair data                  ... done (  0.0 sec)
Shell pair information
Total number of shell pairs                 ...       406
Shell pairs after pre-screening             ...       402
Total number of primitive shell pairs       ...      2724
Primitive shell pairs kept                  ...      2017
          la=0 lb=0:    206 shell pairs
          la=1 lb=0:    160 shell pairs
          la=1 lb=1:     36 shell pairs

Calculating one electron integrals          ... done (  0.0 sec)
Calculating RI/J V-Matrix + Cholesky decomp.... done (  0.0 sec)
Calculating Nuclear repulsion               ... done (  0.0 sec) ENN=    105.284994405753 Eh

SHARK setup successfully completed in   1.1 seconds

Maximum memory used throughout the entire GTOINT-calculation: 8.3 MB
-------------------------------------------------------------------------------
                                 ORCA SCF
-------------------------------------------------------------------------------

------------
SCF SETTINGS
------------
Hamiltonian:
 Density Functional     Method          .... DFT(GTOs)
 Exchange Functional    Exchange        .... B88
   X-Alpha parameter    XAlpha          ....  0.666667
   Becke's b parameter  XBeta           ....  0.004200
 Correlation Functional Correlation     .... LYP
 LDA part of GGA corr.  LDAOpt          .... VWN-5
 Gradients option       PostSCFGGA      .... off
 Hybrid DFT is turned on
   Fraction HF Exchange ScalHFX         ....  0.200000
   Scaling of DF-GGA-X  ScalDFX         ....  0.720000
   Scaling of DF-GGA-C  ScalDFC         ....  0.810000
   Scaling of DF-LDA-C  ScalLDAC        ....  1.000000
   Perturbative correction              ....  0.000000
   Density functional embedding theory  .... OFF
   NL short-range parameter             ....  4.800000
 RI-approximation to the Coulomb term is turned on
   Number of AuxJ basis functions       .... 240
   RIJ-COSX (HFX calculated with COS-X)).... on


General Settings:
 Integral files         IntName         .... acrolien.70
 Hartree-Fock type      HFTyp           .... RHF
 Total Charge           Charge          ....    0
 Multiplicity           Mult            ....    1
 Number of Electrons    NEL             ....   30
 Basis Dimension        Dim             ....   44
 Nuclear Repulsion      ENuc            ....    105.2849944058 Eh

Convergence Acceleration:
 DIIS                   CNVDIIS         .... on
   Start iteration      DIISMaxIt       ....    12
   Startup error        DIISStart       ....  0.200000
   # of expansion vecs  DIISMaxEq       ....     5
   Bias factor          DIISBfac        ....   1.050
   Max. coefficient     DIISMaxC        ....  10.000
 Trust-Rad. Augm. Hess. CNVTRAH         .... auto
   Auto Start mean grad. ratio tolernc. ....  1.125000
   Auto Start start iteration           ....    20
   Auto Start num. interpolation iter.  ....    10
   Max. Number of Micro iterations      ....    16
   Max. Number of Macro iterations      .... Maxiter - #DIIS iter
   Number of Davidson start vectors     ....     2
   Converg. threshold I  (grad. norm)   ....   1.000e-05
   Converg. threshold II (energy diff.) ....   1.000e-08
   Grad. Scal. Fac. for Micro threshold ....   0.100
   Minimum threshold for Micro iter.    ....   0.010
   NR start threshold (gradient norm)   ....   0.001
   Initial trust radius                 ....   0.400
   Minimum AH scaling param. (alpha)    ....   1.000
   Maximum AH scaling param. (alpha)    .... 1000.000
   Orbital update algorithm             .... Taylor
   White noise on init. David. guess    .... on
   Maximum white noise                  ....   0.010
   Quad. conv. algorithm                .... NR
 SOSCF                  CNVSOSCF        .... on
   Start iteration      SOSCFMaxIt      ....   150
   Startup grad/error   SOSCFStart      ....  0.003300
 Level Shifting         CNVShift        .... on
   Level shift para.    LevelShift      ....    0.2500
   Turn off err/grad.   ShiftErr        ....    0.0010
 Zerner damping         CNVZerner       .... off
 Static damping         CNVDamp         .... on
   Fraction old density DampFac         ....    0.7000
   Max. Damping (<1)    DampMax         ....    0.9800
   Min. Damping (>=0)   DampMin         ....    0.0000
   Turn off err/grad.   DampErr         ....    0.1000
 Fernandez-Rico         CNVRico         .... off

SCF Procedure:
 Maximum # iterations   MaxIter         ....   500
 SCF integral mode      SCFMode         .... Direct
   Integral package                     .... SHARK and LIBINT hybrid scheme
 Reset frequency        DirectResetFreq ....    20
 Integral Threshold     Thresh          ....  2.500e-11 Eh
 Primitive CutOff       TCut            ....  2.500e-12 Eh

Convergence Tolerance:
 Convergence Check Mode ConvCheckMode   .... Total+1el-Energy
 Convergence forced     ConvForced      .... 1
 Energy Change          TolE            ....  1.000e-08 Eh
 1-El. energy change                    ....  1.000e-05 Eh
 Orbital Gradient       TolG            ....  1.000e-05
 Orbital Rotation angle TolX            ....  1.000e-05
 DIIS Error             TolErr          ....  5.000e-07


Diagonalization of the overlap matrix:
Smallest eigenvalue                        ... 5.020e-03
Time for diagonalization                   ...    0.060 sec
Threshold for overlap eigenvalues          ... 1.000e-08
Number of eigenvalues below threshold      ... 0
Time for construction of square roots      ...    0.074 sec
Total time needed                          ...    0.134 sec

Time for model grid setup =    0.093 sec

------------------------------
INITIAL GUESS: MODEL POTENTIAL
------------------------------
Loading Hartree-Fock densities                     ... done
Calculating cut-offs                               ... done
Initializing the effective Hamiltonian             ... done
Setting up the integral package (SHARK)            ... done
Starting the Coulomb interaction                   ... done (   0.1 sec)
Reading the grid                                   ... done
Mapping shells                                     ... done
Starting the XC term evaluation                    ... done (   0.0 sec)
  promolecular density results
     # of electrons  =     29.999496002
     EX              =    -24.783674722
     EC              =     -0.999500007
     EX+EC           =    -25.783174729
Transforming the Hamiltonian                       ... done (   0.1 sec)
Diagonalizing the Hamiltonian                      ... done (   0.0 sec)
Back transforming the eigenvectors                 ... done (   0.0 sec)
Now organizing SCF variables                       ... done
                      ------------------
                      INITIAL GUESS DONE (   0.5 sec)
                      ------------------
-------------------
DFT GRID GENERATION
-------------------

General Integration Accuracy     IntAcc      ... 4.388
Radial Grid Type                 RadialGrid  ... OptM3 with GC (2021)
Angular Grid (max. ang.)         AngularGrid ... 4 (Lebedev-302)
Angular grid pruning method      GridPruning ... 4 (adaptive)
Weight generation scheme         WeightScheme... Becke
Basis function cutoff            BFCut       ... 1.0000e-11
Integration weight cutoff        WCut        ... 1.0000e-14
Angular grids for H and He will be reduced by one unit
Partially contracted basis set               ... off
Rotationally invariant grid construction     ... off

Total number of grid points                  ...    37344
Total number of batches                      ...      586
Average number of points per batch           ...       63
Average number of grid points per atom       ...     4668
Time for grid setup =    0.240 sec

--------------------
COSX GRID GENERATION
--------------------

GRIDX 1
-------
General Integration Accuracy     IntAcc      ... 3.816
Radial Grid Type                 RadialGrid  ... OptM3 with GC (2021)
Angular Grid (max. ang.)         AngularGrid ... 1 (Lebedev-50)
Angular grid pruning method      GridPruning ... 4 (adaptive)
Weight generation scheme         WeightScheme... Becke
Basis function cutoff            BFCut       ... 1.0000e-11
Integration weight cutoff        WCut        ... 1.0000e-14
Angular grids for H and He will be reduced by one unit
Partially contracted basis set               ... on
Rotationally invariant grid construction     ... off

Total number of grid points                  ...     4787
Total number of batches                      ...       79
Average number of points per batch           ...       60
Average number of grid points per atom       ...      598
UseSFitting                                  ... on

GRIDX 2
-------
General Integration Accuracy     IntAcc      ... 4.020
Radial Grid Type                 RadialGrid  ... OptM3 with GC (2021)
Angular Grid (max. ang.)         AngularGrid ... 2 (Lebedev-110)
Angular grid pruning method      GridPruning ... 4 (adaptive)
Weight generation scheme         WeightScheme... Becke
Basis function cutoff            BFCut       ... 1.0000e-11
Integration weight cutoff        WCut        ... 1.0000e-14
Angular grids for H and He will be reduced by one unit
Partially contracted basis set               ... on
Rotationally invariant grid construction     ... off

Total number of grid points                  ...    10532
Total number of batches                      ...      168
Average number of points per batch           ...       62
Average number of grid points per atom       ...     1316
UseSFitting                                  ... on

GRIDX 3
-------
General Integration Accuracy     IntAcc      ... 4.338
Radial Grid Type                 RadialGrid  ... OptM3 with GC (2021)
Angular Grid (max. ang.)         AngularGrid ... 3 (Lebedev-194)
Angular grid pruning method      GridPruning ... 4 (adaptive)
Weight generation scheme         WeightScheme... Becke
Basis function cutoff            BFCut       ... 1.0000e-11
Integration weight cutoff        WCut        ... 1.0000e-14
Angular grids for H and He will be reduced by one unit
Partially contracted basis set               ... on
Rotationally invariant grid construction     ... off

Total number of grid points                  ...    23262
Total number of batches                      ...      368
Average number of points per batch           ...       63
Average number of grid points per atom       ...     2908
UseSFitting                                  ... on

Time for X-Grid setup             =    2.558 sec

--------------
SCF ITERATIONS
--------------
ITER       Energy         Delta-E        Max-DP      RMS-DP      [F,P]     Damp
               ***  Starting incremental Fock matrix formation  ***
  0   -191.5782311483   0.000000000000 0.09886751  0.00782461  0.2484614 0.7000
  1   -191.6425141744  -0.064283026151 0.05657123  0.00474592  0.0928303 0.7000
                               ***Turning on DIIS***
  2   -191.6644060649  -0.021891890498 0.06454226  0.00641666  0.0376206 0.0000
  3   -191.7046358994  -0.040229834504 0.03821906  0.00350793  0.0442655 0.0000
  4   -191.7105909166  -0.005955017154 0.01113511  0.00114398  0.0256142 0.0000
                      *** Initiating the SOSCF procedure ***
                           *** Shutting down DIIS ***
                      *** Re-Reading the Fockian *** 
                      *** Removing any level shift *** 
ITER      Energy       Delta-E        Grad      Rot      Max-DP    RMS-DP
  5   -191.71163282  -0.0010419076  0.000535  0.000535  0.003466  0.000308
               *** Restarting incremental Fock matrix formation ***
  6   -191.71167980  -0.0000469749  0.000342  0.001515  0.001728  0.000145
  7   -191.71167867   0.0000011314  0.000539  0.000731  0.001375  0.000089
  8   -191.71168163  -0.0000029586  0.000136  0.000261  0.000464  0.000038
  9   -191.71168152   0.0000001036  0.000139  0.000185  0.000250  0.000019
 10   -191.71168183  -0.0000003110  0.000027  0.000078  0.000107  0.000007
 11   -191.71168182   0.0000000116  0.000045  0.000049  0.000069  0.000004
                  ***Gradient check signals convergence***
              ***Rediagonalizing the Fockian in SOSCF/NRSCF***

               *****************************************************
               *                     SUCCESS                       *
               *           SCF CONVERGED AFTER  12 CYCLES          *
               *****************************************************

Old exchange energy                            =     -5.036769064 Eh
New exchange energy                            =     -5.036763723 Eh
Exchange energy change after final integration =      0.000005341 Eh
Total energy after final integration           =   -191.711676499 Eh
Final COS-X integration done in                =     0.812 sec

----------------
TOTAL SCF ENERGY
----------------

Total Energy       :         -191.71167650 Eh           -5216.73993 eV

Components:
Nuclear Repulsion  :          105.28499441 Eh            2864.95035 eV
Electronic Energy  :         -296.99667090 Eh           -8081.69028 eV
One Electron Energy:         -467.39901098 Eh          -12718.57369 eV
Two Electron Energy:          170.40234008 Eh            4636.88341 eV
Max COSX asymmetry :            0.00000075 Eh               0.00002 eV

Virial components:
Potential Energy   :         -382.92850734 Eh          -10420.01443 eV
Kinetic Energy     :          191.21683084 Eh            5203.27450 eV
Virial Ratio       :            2.00258788


DFT components:
N(Alpha)           :       15.000007313449 electrons
N(Beta)            :       15.000007313449 electrons
N(Total)           :       30.000014626898 electrons
E(X)               :      -20.045492304307 Eh       
E(C)               :       -1.187234840056 Eh       
E(XC)              :      -21.232727144363 Eh       
DFET-embed. en.    :        0.000000000000 Eh       

---------------
SCF CONVERGENCE
---------------

  Last Energy change         ...   -1.8022e-08  Tolerance :   1.0000e-08
  Last MAX-Density change    ...    1.3323e-15  Tolerance :   1.0000e-07
  Last RMS-Density change    ...    6.6154e-17  Tolerance :   5.0000e-09
  Last Orbital Gradient      ...    8.4286e-07  Tolerance :   1.0000e-05
  Last Orbital Rotation      ...    1.2530e-06  Tolerance :   1.0000e-05

             **** THE GBW FILE WAS UPDATED (acrolien.70.gbw) ****
             **** DENSITY acrolien.70.scfp WAS UPDATED ****
             **** ENERGY FILE WAS UPDATED (acrolien.70.en.tmp) ****
             **** THE GBW FILE WAS UPDATED (acrolien.70.gbw) ****
             **** DENSITY acrolien.70.scfp WAS UPDATED ****
----------------
ORBITAL ENERGIES
----------------

  NO   OCC          E(Eh)            E(eV) 
   0   2.0000     -19.152313      -521.1609 
   1   2.0000     -10.274845      -279.5927 
   2   2.0000     -10.197294      -277.4825 
   3   2.0000     -10.194821      -277.4152 
   4   2.0000      -1.062244       -28.9051 
   5   2.0000      -0.821562       -22.3558 
   6   2.0000      -0.680801       -18.5255 
   7   2.0000      -0.538385       -14.6502 
   8   2.0000      -0.533928       -14.5289 
   9   2.0000      -0.442604       -12.0439 
  10   2.0000      -0.440935       -11.9985 
  11   2.0000      -0.403508       -10.9800 
  12   2.0000      -0.380609       -10.3569 
  13   2.0000      -0.298360        -8.1188 
  14   2.0000      -0.256456        -6.9785 
  15   0.0000      -0.072429        -1.9709 
  16   0.0000       0.060339         1.6419 
  17   0.0000       0.103574         2.8184 
  18   0.0000       0.129891         3.5345 
  19   0.0000       0.176154         4.7934 
  20   0.0000       0.202882         5.5207 
  21   0.0000       0.264974         7.2103 
  22   0.0000       0.313315         8.5257 
  23   0.0000       0.337642         9.1877 
  24   0.0000       0.509843        13.8735 
  25   0.0000       0.536306        14.5936 
  26   0.0000       0.583143        15.8681 
  27   0.0000       0.591082        16.0842 
  28   0.0000       0.628442        17.1008 
  29   0.0000       0.695970        18.9383 
  30   0.0000       0.697880        18.9903 
  31   0.0000       0.772261        21.0143 
  32   0.0000       0.795044        21.6343 
  33   0.0000       0.854744        23.2588 
  34   0.0000       0.879547        23.9337 
  35   0.0000       0.933256        25.3952 
  36   0.0000       0.982753        26.7421 
  37   0.0000       0.993525        27.0352 
  38   0.0000       1.014763        27.6131 
  39   0.0000       1.120250        30.4835 
  40   0.0000       1.157954        31.5095 
  41   0.0000       1.212782        33.0015 
  42   0.0000       1.218487        33.1567 
  43   0.0000       1.804345        49.0987 

                    ********************************
                    * MULLIKEN POPULATION ANALYSIS *
                    ********************************

-----------------------
MULLIKEN ATOMIC CHARGES
-----------------------
   0 C :    0.181178
   1 O :   -0.378266
   2 C :   -0.122789
   3 C :   -0.212851
   4 H :    0.098154
   5 H :    0.120762
   6 H :    0.173980
   7 H :    0.139833
Sum of atomic charges:    0.0000000

--------------------------------
MULLIKEN REDUCED ORBITAL CHARGES
--------------------------------
  0 C s       :     3.162621  s :     3.162621
      pz      :     0.801637  p :     2.656201
      px      :     1.043269
      py      :     0.811295
  1 O s       :     3.947713  s :     3.947713
      pz      :     1.296931  p :     4.430553
      px      :     1.798412
      py      :     1.335210
  2 C s       :     3.193340  s :     3.193340
      pz      :     1.019429  p :     2.929449
      px      :     0.915775
      py      :     0.994245
  3 C s       :     3.250143  s :     3.250143
      pz      :     0.895690  p :     2.962708
      px      :     1.016117
      py      :     1.050901
  4 H s       :     0.901846  s :     0.901846
  5 H s       :     0.879238  s :     0.879238
  6 H s       :     0.826020  s :     0.826020
  7 H s       :     0.860167  s :     0.860167


                     *******************************
                     * LOEWDIN POPULATION ANALYSIS *
                     *******************************

----------------------
LOEWDIN ATOMIC CHARGES
----------------------
   0 C :    0.111106
   1 O :   -0.234427
   2 C :   -0.182306
   3 C :   -0.150960
   4 H :    0.069903
   5 H :    0.113113
   6 H :    0.144633
   7 H :    0.128939

-------------------------------
LOEWDIN REDUCED ORBITAL CHARGES
-------------------------------
  0 C s       :     2.965780  s :     2.965780
      pz      :     0.801818  p :     2.923114
      px      :     1.094145
      py      :     1.027151
  1 O s       :     3.636640  s :     3.636640
      pz      :     1.298933  p :     4.597787
      px      :     1.842517
      py      :     1.456336
  2 C s       :     2.969834  s :     2.969834
      pz      :     1.011471  p :     3.212472
      px      :     1.112564
      py      :     1.088437
  3 C s       :     2.980569  s :     2.980569
      pz      :     0.899844  p :     3.170391
      px      :     1.135487
      py      :     1.135059
  4 H s       :     0.930097  s :     0.930097
  5 H s       :     0.886887  s :     0.886887
  6 H s       :     0.855367  s :     0.855367
  7 H s       :     0.871061  s :     0.871061


                      *****************************
                      * MAYER POPULATION ANALYSIS *
                      *****************************

  NA   - Mulliken gross atomic population
  ZA   - Total nuclear charge
  QA   - Mulliken gross atomic charge
  VA   - Mayer's total valence
  BVA  - Mayer's bonded valence
  FA   - Mayer's free valence

  ATOM       NA         ZA         QA         VA         BVA        FA
  0 C      5.8188     6.0000     0.1812     3.7726     3.7726    -0.0000
  1 O      8.3783     8.0000    -0.3783     2.0325     2.0325     0.0000
  2 C      6.1228     6.0000    -0.1228     3.7617     3.7617     0.0000
  3 C      6.2129     6.0000    -0.2129     3.8537     3.8537    -0.0000
  4 H      0.9018     1.0000     0.0982     0.9258     0.9258    -0.0000
  5 H      0.8792     1.0000     0.1208     0.9428     0.9428    -0.0000
  6 H      0.8260     1.0000     0.1740     0.9405     0.9405    -0.0000
  7 H      0.8602     1.0000     0.1398     0.9428     0.9428     0.0000

  Mayer bond orders larger than 0.100000
B(  0-C ,  1-O ) :   1.8756 B(  0-C ,  2-C ) :   0.9938 B(  0-C ,  4-H ) :   0.8816 
B(  2-C ,  3-C ) :   1.8817 B(  2-C ,  5-H ) :   0.9356 B(  3-C ,  6-H ) :   0.9392 
B(  3-C ,  7-H ) :   0.9451 

-------
TIMINGS
-------

Total SCF time: 0 days 0 hours 0 min 41 sec 

Total time                  ....      41.208 sec
Sum of individual times     ....      37.520 sec  ( 91.1%)

Fock matrix formation       ....      33.727 sec  ( 81.8%)
  Split-RI-J                ....       0.588 sec  (  1.7% of F)
  Chain of spheres X        ....       4.577 sec  ( 13.6% of F)
  XC integration            ....      15.167 sec  ( 45.0% of F)
    Basis function eval.    ....       0.949 sec  (  6.3% of XC)
    Density eval.           ....       0.375 sec  (  2.5% of XC)
    XC-Functional eval.     ....       0.632 sec  (  4.2% of XC)
    XC-Potential eval.      ....       0.238 sec  (  1.6% of XC)
Diagonalization             ....       0.003 sec  (  0.0%)
Density matrix formation    ....       0.000 sec  (  0.0%)
Population analysis         ....       0.515 sec  (  1.2%)
Initial guess               ....       0.380 sec  (  0.9%)
Orbital Transformation      ....       0.000 sec  (  0.0%)
Orbital Orthonormalization  ....       0.000 sec  (  0.0%)
DIIS solution               ....       0.001 sec  (  0.0%)
SOSCF solution              ....       0.003 sec  (  0.0%)
Grid generation             ....       2.891 sec  (  7.0%)

Maximum memory used throughout the entire SCF-calculation: 46.8 MB
------------------------------------------------------------------------------
                        ORCA TD-DFT/TDA CALCULATION
------------------------------------------------------------------------------

Input orbitals are from        ... acrolien.70.gbw
CI-vector output               ... acrolien.70.cis
Tamm-Dancoff approximation     ... operative
CIS-Integral strategy          ... AO-integrals
Integral handling              ... AO integral Direct
Max. core memory used          ... 512 MB
Reference state                ... RHF
Generation of triplets         ... off
Follow IRoot                   ... off
Number of operators            ... 1
Orbital ranges used for CIS calculation:
 Operator 0:  Orbitals   4... 14  to  15... 43
XAS localization array:
 Operator 0:  Orbitals  -1... -1

-------------------
XC-INTEGRATION GRID
-------------------

General Integration Accuracy     IntAcc      ... 3.467
Radial Grid Type                 RadialGrid  ... OptM3 with GC (2021)
Angular Grid (max. ang.)         AngularGrid ... 1 (Lebedev-50)
Angular grid pruning method      GridPruning ... 4 (adaptive)
Weight generation scheme         WeightScheme... Becke
Basis function cutoff            BFCut       ... 1.0000e-11
Integration weight cutoff        WCut        ... 1.0000e-14
Angular grids for H and He will be reduced by one unit
Partially contracted basis set               ... off
Rotationally invariant grid construction     ... off

Total number of grid points                  ...     5478
Total number of batches                      ...       91
Average number of points per batch           ...       60
Average number of grid points per atom       ...      685

---------------------
COSX-INTEGRATION GRID
---------------------

General Integration Accuracy     IntAcc      ... 3.067
Radial Grid Type                 RadialGrid  ... OptM3 with GC (2021)
Angular Grid (max. ang.)         AngularGrid ... 1 (Lebedev-50)
Angular grid pruning method      GridPruning ... 4 (adaptive)
Weight generation scheme         WeightScheme... Becke
Basis function cutoff            BFCut       ... 1.0000e-11
Integration weight cutoff        WCut        ... 1.0000e-14
Angular grids for H and He will be reduced by one unit
Partially contracted basis set               ... on
Rotationally invariant grid construction     ... off

Total number of grid points                  ...     2499
Total number of batches                      ...       45
Average number of points per batch           ...       55
Average number of grid points per atom       ...      312

---------------
TD-DFT XC SETUP
---------------

DFT calculation                         ... on
Name of the grid file                   ... acrolien.70.grid_cis.tmp
Exchange functional (TD-DFT)            ... B88
   X-Alpha parameter    XAlpha (TD-DFT) ...  0.666667
   Becke's b parameter  XBeta (TD-DFT)  ...  0.004200
Correlation functional (TD-DFT)         ... LYP
 LDA part of GGA corr.  LDAOpt (TD-DFT) ... VWN-5
Hybrid DFT                              ... on
   Exchange mixing (TD-DFT)             ...  0.200
   GGA exch. scaling (TD-DFT)           ...  0.720
   GGA corr. scaling (TD-DFT)           ...  0.810

Building densities             ... done
Calculating rho(r) on the grid ... done
Building xc-kernel on the grid ... done
                    *** TD-DFT CALCULATION INITIALIZED ***

------------------------
DAVIDSON-DIAGONALIZATION
------------------------

Dimension of the eigenvalue problem            ...    319
Number of roots to be determined               ...      1
Maximum size of the expansion space            ...     10
Maximum number of iterations                   ...    100
Convergence tolerance for the residual         ...    2.500e-07
Convergence tolerance for the energies         ...    2.500e-07
Orthogonality tolerance                        ...    1.000e-14
Level Shift                                    ...    0.000e+00
Constructing the preconditioner                ... o.k.
Building the initial guess                     ... o.k.
Number of trial vectors determined             ...     10


                       ****Iteration    0****

   Memory handling for direct AO based CIS:
   Memory per vector needed      ...     1 MB
   Memory needed                 ...     0 MB
   Memory available              ...   512 MB
   Number of vectors per batch   ...   512
   Number of batches             ...     1
   Time for densities:            0.000
   Time for RI-J (Direct):        0.044
   Time for K (COSX):             0.642
   Time for XC-Integration:       0.040
   Time for Sigma-Completion:     0.000
   Size of expansion space: 3
   Lowest Energy          :     0.127467734208
   Maximum Energy change  :     0.127467734208 (vector 0)
   Maximum residual norm  :     0.000788712274

                       ****Iteration    1****
   Time for densities:            0.000
   Time for RI-J (Direct):        0.056
   Time for K (COSX):             0.108
   Time for XC-Integration:       0.023
   Time for Sigma-Completion:     0.000
   Size of expansion space: 4
   Lowest Energy          :     0.124849813968
   Maximum Energy change  :     0.002617920240 (vector 0)
   Maximum residual norm  :     0.000157266746

                       ****Iteration    2****
   Time for densities:            0.000
   Time for RI-J (Direct):        0.034
   Time for K (COSX):             0.107
   Time for XC-Integration:       0.023
   Time for Sigma-Completion:     0.000
   Size of expansion space: 5
   Lowest Energy          :     0.124672172780
   Maximum Energy change  :     0.000177641188 (vector 0)
   Maximum residual norm  :     0.000017443585

                       ****Iteration    3****
   Time for densities:            0.000
   Time for RI-J (Direct):        0.034
   Time for K (COSX):             0.752
   Time for XC-Integration:       0.023
   Time for Sigma-Completion:     0.000
   Size of expansion space: 6
   Lowest Energy          :     0.124652953247
   Maximum Energy change  :     0.000019219533 (vector 0)
   Maximum residual norm  :     0.000001837866

                       ****Iteration    4****
   Time for densities:            0.000
   Time for RI-J (Direct):        0.034
   Time for K (COSX):             0.107
   Time for XC-Integration:       0.023
   Time for Sigma-Completion:     0.000
   Size of expansion space: 7
   Lowest Energy          :     0.124650731784
   Maximum Energy change  :     0.000002221463 (vector 0)
   Maximum residual norm  :     0.000000052968

      *** CONVERGENCE OF RESIDUAL NORM REACHED ***

Storing the converged CI vectors               ... acrolien.70.cis1

                 *** DAVIDSON DONE ***

Total time for solving the CIS problem:     3.059sec

------------------------------------
TD-DFT/TDA EXCITED STATES (SINGLETS)
------------------------------------

the weight of the individual excitations are printed if larger than 1.0e-02

STATE  1:  E=   0.124651 au      3.392 eV    27357.7 cm**-1 <S**2> =   0.000000
    14a ->  15a  :     0.982140 (c= -0.99102965)
    14a ->  16a  :     0.014612 (c= -0.12087950)


-----------------------------
TD-DFT/TDA-EXCITATION SPECTRA
-----------------------------

Center of mass = (  0.5765, -0.9093, -0.0006)
Calculating the Dipole integrals                  ... done
Transforming integrals                            ... done
Calculating the Linear Momentum integrals         ... done
Transforming integrals                            ... done
Calculating angular momentum integrals            ... done
Transforming integrals                            ... done

-----------------------------------------------------------------------------
         ABSORPTION SPECTRUM VIA TRANSITION ELECTRIC DIPOLE MOMENTS
-----------------------------------------------------------------------------
State   Energy    Wavelength  fosc         T2        TX        TY        TZ  
        (cm-1)      (nm)                 (au**2)    (au)      (au)      (au) 
-----------------------------------------------------------------------------
   1   27357.7    365.5   0.000647918   0.00780   0.08339   0.01422  -0.02532

-----------------------------------------------------------------------------
         ABSORPTION SPECTRUM VIA TRANSITION VELOCITY DIPOLE MOMENTS
-----------------------------------------------------------------------------
State   Energy    Wavelength   fosc        P2         PX        PY        PZ  
        (cm-1)      (nm)                 (au**2)     (au)      (au)      (au) 
-----------------------------------------------------------------------------
   1   27357.7    365.5   0.000199109   0.00004  -0.00001  -0.00142   0.00593

-------------------------------------------------------------------
                             CD SPECTRUM
-------------------------------------------------------------------
State  Energy     Wavelength     R         MX        MY        MZ   
       (cm-1)       (nm)     (1e40*cgs)   (au)      (au)      (au)  
-------------------------------------------------------------------
   1   27357.7    365.5     -5.78140  -0.09295  -0.36773  -0.02838

-------------------------------------------------------------------
         CD SPECTRUM VIA TRANSITION VELOCITY DIPOLE MOMENTS        
-------------------------------------------------------------------
State  Energy     Wavelength     R         MX        MY        MZ   
       (cm-1)       (nm)     (1e40*cgs)   (au)      (au)      (au)  
-------------------------------------------------------------------
   1   27357.7    365.5      1.33721  -0.09295  -0.36773  -0.02838

Total run time:        5.961 sec

           *** ORCA-CIS/TD-DFT FINISHED WITHOUT ERROR ***

Maximum memory used throughout the entire CIS-calculation: 42.9 MB

-----------------------
CIS/TD-DFT TOTAL ENERGY
-----------------------

    E(SCF)  =   -191.711676499 Eh
    DE(CIS) =      0.124650732 Eh (Root  1)
    ----------------------------- ---------
    E(tot)  =   -191.587025767 Eh


-------------------------   --------------------
FINAL SINGLE POINT ENERGY      -191.587025767391
-------------------------   --------------------


                            ***************************************
                            *     ORCA property calculations      *
                            ***************************************

                                    ---------------------
                                    Active property flags
                                    ---------------------
   (+) Dipole Moment


------------------------------------------------------------------------------
                       ORCA ELECTRIC PROPERTIES CALCULATION
------------------------------------------------------------------------------

Dipole Moment Calculation                       ... on
Quadrupole Moment Calculation                   ... off
Polarizability Calculation                      ... off
GBWName                                         ... acrolien.70.gbw
Electron density                                ... acrolien.70.scfp
The origin for moment calculation is the CENTER OF MASS  = ( 0.576533, -0.909292 -0.000583)

-------------
DIPOLE MOMENT
-------------
                                X             Y             Z
Electronic contribution:     -1.59519      -1.84330       0.16459
Nuclear contribution   :      2.15395       2.88779      -0.21861
                        -----------------------------------------
Total Dipole Moment    :      0.55877       1.04450      -0.05402
                        -----------------------------------------
Magnitude (a.u.)       :      1.18580
Magnitude (Debye)      :      3.01406



--------------------
Rotational spectrum 
--------------------
 
Rotational constants in cm-1:     0.869685     0.194652     0.159718 
Rotational constants in MHz : 26072.489363  5835.530845  4788.231980 

 Dipole components along the rotational axes: 
x,y,z [a.u.] :     1.040282     0.566789    -0.051747 
x,y,z [Debye]:     2.644187     1.440664    -0.131531 

 

Timings for individual modules:

Sum of individual times         ...       51.186 sec (=   0.853 min)
GTO integral calculation        ...        1.525 sec (=   0.025 min)   3.0 %
SCF iterations                  ...       41.798 sec (=   0.697 min)  81.7 %
CIS module                      ...        7.863 sec (=   0.131 min)  15.4 %
                             ****ORCA TERMINATED NORMALLY****
TOTAL RUN TIME: 0 days 0 hours 0 minutes 54 seconds 270 msec
