
                                 *****************
                                 * O   R   C   A *
                                 *****************

                                            #,                                       
                                            ###                                      
                                            ####                                     
                                            #####                                    
                                            ######                                   
                                           ########,                                 
                                     ,,################,,,,,                         
                               ,,#################################,,                 
                          ,,##########################################,,             
                       ,#########################################, ''#####,          
                    ,#############################################,,   '####,        
                  ,##################################################,,,,####,       
                ,###########''''           ''''###############################       
              ,#####''   ,,,,##########,,,,          '''####'''          '####       
            ,##' ,,,,###########################,,,                        '##       
           ' ,,###''''                  '''############,,,                           
         ,,##''                                '''############,,,,        ,,,,,,###''
      ,#''                                            '''#######################'''  
     '                                                          ''''####''''         
             ,#######,   #######,   ,#######,      ##                                
            ,#'     '#,  ##    ##  ,#'     '#,    #''#        ######   ,####,        
            ##       ##  ##   ,#'  ##            #'  '#       #        #'  '#        
            ##       ##  #######   ##           ,######,      #####,   #    #        
            '#,     ,#'  ##    ##  '#,     ,#' ,#      #,         ##   #,  ,#        
             '#######'   ##     ##  '#######'  #'      '#     #####' # '####'        



                  #######################################################
                  #                        -***-                        #
                  #          Department of theory and spectroscopy      #
                  #    Directorship and core code : Frank Neese         #
                  #        Max Planck Institute fuer Kohlenforschung    #
                  #                Kaiser Wilhelm Platz 1               #
                  #                 D-45470 Muelheim/Ruhr               #
                  #                      Germany                        #
                  #                                                     #
                  #                  All rights reserved                #
                  #                        -***-                        #
                  #######################################################


                         Program Version 5.0.3 -  RELEASE  -


 With contributions from (in alphabetic order):
   Daniel Aravena         : Magnetic Suceptibility
   Michael Atanasov       : Ab Initio Ligand Field Theory (pilot matlab implementation)
   Alexander A. Auer      : GIAO ZORA, VPT2 properties, NMR spectrum
   Ute Becker             : Parallelization
   Giovanni Bistoni       : ED, misc. LED, open-shell LED, HFLD
   Martin Brehm           : Molecular dynamics
   Dmytro Bykov           : SCF Hessian
   Vijay G. Chilkuri      : MRCI spin determinant printing, contributions to CSF-ICE
   Dipayan Datta          : RHF DLPNO-CCSD density
   Achintya Kumar Dutta   : EOM-CC, STEOM-CC
   Dmitry Ganyushin       : Spin-Orbit,Spin-Spin,Magnetic field MRCI
   Miquel Garcia          : C-PCM and meta-GGA Hessian, CC/C-PCM, Gaussian charge scheme
   Yang Guo               : DLPNO-NEVPT2, F12-NEVPT2, CIM, IAO-localization
   Andreas Hansen         : Spin unrestricted coupled pair/coupled cluster methods
   Benjamin Helmich-Paris : MC-RPA, TRAH-SCF, COSX integrals
   Lee Huntington         : MR-EOM, pCC
   Robert Izsak           : Overlap fitted RIJCOSX, COSX-SCS-MP3, EOM
   Marcus Kettner         : VPT2
   Christian Kollmar      : KDIIS, OOCD, Brueckner-CCSD(T), CCSD density, CASPT2, CASPT2-K
   Simone Kossmann        : Meta GGA functionals, TD-DFT gradient, OOMP2, MP2 Hessian
   Martin Krupicka        : Initial AUTO-CI
   Lucas Lang             : DCDCAS
   Marvin Lechner         : AUTO-CI (C++ implementation), FIC-MRCC
   Dagmar Lenk            : GEPOL surface, SMD
   Dimitrios Liakos       : Extrapolation schemes; Compound Job, initial MDCI parallelization
   Dimitrios Manganas     : Further ROCIS development; embedding schemes
   Dimitrios Pantazis     : SARC Basis sets
   Anastasios Papadopoulos: AUTO-CI, single reference methods and gradients
   Taras Petrenko         : DFT Hessian,TD-DFT gradient, ASA, ECA, R-Raman, ABS, FL, XAS/XES, NRVS
   Peter Pinski           : DLPNO-MP2, DLPNO-MP2 Gradient
   Christoph Reimann      : Effective Core Potentials
   Marius Retegan         : Local ZFS, SOC
   Christoph Riplinger    : Optimizer, TS searches, QM/MM, DLPNO-CCSD(T), (RO)-DLPNO pert. Triples
   Tobias Risthaus        : Range-separated hybrids, TD-DFT gradient, RPA, STAB
   Michael Roemelt        : Original ROCIS implementation
   Masaaki Saitow         : Open-shell DLPNO-CCSD energy and density
   Barbara Sandhoefer     : DKH picture change effects
   Avijit Sen             : IP-ROCIS
   Kantharuban Sivalingam : CASSCF convergence, NEVPT2, FIC-MRCI
   Bernardo de Souza      : ESD, SOC TD-DFT
   Georgi Stoychev        : AutoAux, RI-MP2 NMR, DLPNO-MP2 response
   Willem Van den Heuvel  : Paramagnetic NMR
   Boris Wezisla          : Elementary symmetry handling
   Frank Wennmohs         : Technical directorship


 We gratefully acknowledge several colleagues who have allowed us to
 interface, adapt or use parts of their codes:
   Stefan Grimme, W. Hujo, H. Kruse, P. Pracht,  : VdW corrections, initial TS optimization,
                  C. Bannwarth, S. Ehlert          DFT functionals, gCP, sTDA/sTD-DF
   Ed Valeev, F. Pavosevic, A. Kumar             : LibInt (2-el integral package), F12 methods
   Garnet Chan, S. Sharma, J. Yang, R. Olivares  : DMRG
   Ulf Ekstrom                                   : XCFun DFT Library
   Mihaly Kallay                                 : mrcc  (arbitrary order and MRCC methods)
   Jiri Pittner, Ondrej Demel                    : Mk-CCSD
   Frank Weinhold                                : gennbo (NPA and NBO analysis)
   Christopher J. Cramer and Donald G. Truhlar   : smd solvation model
   Lars Goerigk                                  : TD-DFT with DH, B97 family of functionals
   V. Asgeirsson, H. Jonsson                     : NEB implementation
   FAccTs GmbH                                   : IRC, NEB, NEB-TS, DLPNO-Multilevel, CI-OPT
                                                   MM, QMMM, 2- and 3-layer-ONIOM, Crystal-QMMM,
                                                   LR-CPCM, SF, NACMEs, symmetry and pop. for TD-DFT,
                                                   nearIR, NL-DFT gradient (VV10), updates on ESD,
                                                   ML-optimized integration grids
   S Lehtola, MJT Oliveira, MAL Marques          : LibXC Library
   Liviu Ungur et al                             : ANISO software


 Your calculation uses the libint2 library for the computation of 2-el integrals
 For citations please refer to: http://libint.valeyev.net

 Your ORCA version has been built with support for libXC version: 5.1.0
 For citations please refer to: https://tddft.org/programs/libxc/

 This ORCA versions uses:
   CBLAS   interface :  Fast vector & matrix operations
   LAPACKE interface :  Fast linear algebra routines
   SCALAPACK package :  Parallel linear algebra routines
   Shared memory     :  Shared parallel matrices
   BLAS/LAPACK       :  OpenBLAS 0.3.15  USE64BITINT DYNAMIC_ARCH NO_AFFINITY Haswell SINGLE_THREADED
        Core in use  :  Haswell
   Copyright (c) 2011-2014, The OpenBLAS Project


================================================================================

----- Orbital basis set information -----
Your calculation utilizes the basis: 6-31G
   H-He, Li-Ne : W. J. Hehre, R. Ditchfield and J.A. Pople, J. Chem. Phys. 56, 2257 (1972).
                 Note: He and Ne are unpublished basis sets taken from the Gaussian program.
                 Note: Li and B from J. D. Dill and J. A. Pople, J. Chem. Phys. 62, 2921 (1975).
   Na - Ar     : M. M. Francl, W. J. Pietro, W. J. Hehre, J. S. Binkley, M. S. Gordon, 
                 D. J. DeFrees and J. A. Pople, J. Chem. Phys. 77, 3654 (1982).
   K - Zn      : V. A. Rassolov, J. A. Pople, M. A. Ratner, and T. L. Windus, J. Chem. Phys. 109, 1223 (1998).

----- AuxJ basis set information -----
Your calculation utilizes the auxiliary basis: def2/J
   F. Weigend, Phys. Chem. Chem. Phys. 8, 1057 (2006).

================================================================================
                                        WARNINGS
                       Please study these warnings very carefully!
================================================================================

INFO   : Checking CIS options ...

INFO   : the flag for use of the SHARK integral package has been found!

================================================================================
                                       INPUT FILE
================================================================================
NAME = acrolien.1093.com
|  1> ! B3LYP 6-31G
|  2> !TightSCF
|  3> %scf
|  4>  ConvForced true
|  5>  convergence tight
|  6>  MaxIter 500
|  7> end
|  8>  
|  9> %tddft 
| 10>  nroots 1
| 11> end
| 12> 
| 13> # 	2384
| 14> * xyz 0 1
| 15> 		C   -1.157019  -0.387577  -0.099399
| 16> 		O   -1.362453  -1.411007   0.390741
| 17> 		C    0.027914   0.535286   0.171456
| 18> 		C    1.174860  -0.003847  -0.114368
| 19> 		H   -1.980527  -0.003401  -0.653447
| 20> 		H   -0.245530   1.641096   0.474261
| 21> 		H    1.511351  -0.937645  -0.393462
| 22> 		H    2.001197   0.635364   0.212060
| 23> *
| 24> 
| 25>                          ****END OF INPUT****
================================================================================

                       ****************************
                       * Single Point Calculation *
                       ****************************

---------------------------------
CARTESIAN COORDINATES (ANGSTROEM)
---------------------------------
  C     -1.157019   -0.387577   -0.099399
  O     -1.362453   -1.411007    0.390741
  C      0.027914    0.535286    0.171456
  C      1.174860   -0.003847   -0.114368
  H     -1.980527   -0.003401   -0.653447
  H     -0.245530    1.641096    0.474261
  H      1.511351   -0.937645   -0.393462
  H      2.001197    0.635364    0.212060

----------------------------
CARTESIAN COORDINATES (A.U.)
----------------------------
  NO LB      ZA    FRAG     MASS         X           Y           Z
   0 C     6.0000    0    12.011   -2.186449   -0.732414   -0.187837
   1 O     8.0000    0    15.999   -2.574663   -2.666417    0.738393
   2 C     6.0000    0    12.011    0.052750    1.011544    0.324005
   3 C     6.0000    0    12.011    2.220164   -0.007270   -0.216124
   4 H     1.0000    0     1.008   -3.742654   -0.006427   -1.234836
   5 H     1.0000    0     1.008   -0.463984    3.101222    0.896223
   6 H     1.0000    0     1.008    2.856039   -1.771892   -0.743535
   7 H     1.0000    0     1.008    3.781714    1.200664    0.400735

--------------------------------
INTERNAL COORDINATES (ANGSTROEM)
--------------------------------
 C      0   0   0     0.000000000000     0.00000000     0.00000000
 O      1   0   0     1.153190926454     0.00000000     0.00000000
 C      1   2   0     1.526140479210   126.83716683     0.00000000
 C      3   1   2     1.299170842338   113.29485679    61.15838816
 H      1   2   3     1.064295922826   113.81408058   191.71307085
 H      3   1   2     1.178676480321   115.64477627   234.14445541
 H      4   3   1     1.031066612165   136.34414105   352.36286602
 H      4   3   1     1.094522169384   111.01097514   187.29557542

---------------------------
INTERNAL COORDINATES (A.U.)
---------------------------
 C      0   0   0     0.000000000000     0.00000000     0.00000000
 O      1   0   0     2.179215031121     0.00000000     0.00000000
 C      1   2   0     2.883987547598   126.83716683     0.00000000
 C      3   1   2     2.455077093194   113.29485679    61.15838816
 H      1   2   3     2.011227819590   113.81408058   191.71307085
 H      3   1   2     2.227375748300   115.64477627   234.14445541
 H      4   3   1     1.948433522821   136.34414105   352.36286602
 H      4   3   1     2.068347147642   111.01097514   187.29557542

---------------------
BASIS SET INFORMATION
---------------------
There are 3 groups of distinct atoms

 Group   1 Type C   : 10s4p contracted to 3s2p pattern {631/31}
 Group   2 Type O   : 10s4p contracted to 3s2p pattern {631/31}
 Group   3 Type H   : 4s contracted to 2s pattern {31}

Atom   0C    basis set group =>   1
Atom   1O    basis set group =>   2
Atom   2C    basis set group =>   1
Atom   3C    basis set group =>   1
Atom   4H    basis set group =>   3
Atom   5H    basis set group =>   3
Atom   6H    basis set group =>   3
Atom   7H    basis set group =>   3
---------------------------------
AUXILIARY/J BASIS SET INFORMATION
---------------------------------
There are 3 groups of distinct atoms

 Group   1 Type C   : 12s5p4d2f1g contracted to 6s4p3d1f1g pattern {711111/2111/211/2/1}
 Group   2 Type O   : 12s5p4d2f1g contracted to 6s4p3d1f1g pattern {711111/2111/211/2/1}
 Group   3 Type H   : 5s2p1d contracted to 3s1p1d pattern {311/2/1}

Atom   0C    basis set group =>   1
Atom   1O    basis set group =>   2
Atom   2C    basis set group =>   1
Atom   3C    basis set group =>   1
Atom   4H    basis set group =>   3
Atom   5H    basis set group =>   3
Atom   6H    basis set group =>   3
Atom   7H    basis set group =>   3
------------------------------------------------------------------------------
                           ORCA GTO INTEGRAL CALCULATION
                           -- RI-GTO INTEGRALS CHOSEN --
------------------------------------------------------------------------------
------------------------------------------------------------------------------
                   ___                                                        
                  /   \      - P O W E R E D   B Y -                         
                 /     \                                                     
                 |  |  |   _    _      __       _____    __    __             
                 |  |  |  | |  | |    /  \     |  _  \  |  |  /  |          
                  \  \/   | |  | |   /    \    | | | |  |  | /  /          
                 / \  \   | |__| |  /  /\  \   | |_| |  |  |/  /          
                |  |  |   |  __  | /  /__\  \  |    /   |      \           
                |  |  |   | |  | | |   __   |  |    \   |  |\   \          
                \     /   | |  | | |  |  |  |  | |\  \  |  | \   \       
                 \___/    |_|  |_| |__|  |__|  |_| \__\ |__|  \__/        
                                                                              
                      - O R C A' S   B I G   F R I E N D -                    
                                      &                                       
                       - I N T E G R A L  F E E D E R -                       
                                                                              
 v1 FN, 2020, v2 2021                                                         
------------------------------------------------------------------------------


Reading SHARK input file acrolien.1093.SHARKINP.tmp ... ok
----------------------
SHARK INTEGRAL PACKAGE
----------------------

Number of atoms                             ...      8
Number of basis functions                   ...     44
Number of shells                            ...     28
Maximum angular momentum                    ...      1
Integral batch strategy                     ... SHARK/LIBINT Hybrid
RI-J (if used) integral strategy            ... SPLIT-RIJ (Revised 2003 algorithm where possible)
Printlevel                                  ...      1
Contraction scheme used                     ... SEGMENTED contraction
Coulomb Range Separation                    ... NOT USED
Exchange Range Separation                   ... NOT USED
Finite Nucleus Model                        ... NOT USED
Auxiliary Coulomb fitting basis             ... AVAILABLE
   # of basis functions in Aux-J            ...    240
   # of shells in Aux-J                     ...     80
   Maximum angular momentum in Aux-J        ...      4
Auxiliary J/K fitting basis                 ... NOT available
Auxiliary Correlation fitting basis         ... NOT available
Auxiliary 'external' fitting basis          ... NOT available
Integral threshold                          ...     2.500000e-11
Primitive cut-off                           ...     2.500000e-12
Primitive pair pre-selection threshold      ...     2.500000e-12

Calculating pre-screening integrals         ... done (  0.0 sec) Dimension = 28
Organizing shell pair data                  ... done (  0.0 sec)
Shell pair information
Total number of shell pairs                 ...       406
Shell pairs after pre-screening             ...       402
Total number of primitive shell pairs       ...      2724
Primitive shell pairs kept                  ...      2012
          la=0 lb=0:    206 shell pairs
          la=1 lb=0:    160 shell pairs
          la=1 lb=1:     36 shell pairs

Calculating one electron integrals          ... done (  0.0 sec)
Calculating RI/J V-Matrix + Cholesky decomp.... done (  0.1 sec)
Calculating Nuclear repulsion               ... done (  0.0 sec) ENN=    105.688958543804 Eh

SHARK setup successfully completed in   1.1 seconds

Maximum memory used throughout the entire GTOINT-calculation: 8.3 MB
-------------------------------------------------------------------------------
                                 ORCA SCF
-------------------------------------------------------------------------------

------------
SCF SETTINGS
------------
Hamiltonian:
 Density Functional     Method          .... DFT(GTOs)
 Exchange Functional    Exchange        .... B88
   X-Alpha parameter    XAlpha          ....  0.666667
   Becke's b parameter  XBeta           ....  0.004200
 Correlation Functional Correlation     .... LYP
 LDA part of GGA corr.  LDAOpt          .... VWN-5
 Gradients option       PostSCFGGA      .... off
 Hybrid DFT is turned on
   Fraction HF Exchange ScalHFX         ....  0.200000
   Scaling of DF-GGA-X  ScalDFX         ....  0.720000
   Scaling of DF-GGA-C  ScalDFC         ....  0.810000
   Scaling of DF-LDA-C  ScalLDAC        ....  1.000000
   Perturbative correction              ....  0.000000
   Density functional embedding theory  .... OFF
   NL short-range parameter             ....  4.800000
 RI-approximation to the Coulomb term is turned on
   Number of AuxJ basis functions       .... 240
   RIJ-COSX (HFX calculated with COS-X)).... on


General Settings:
 Integral files         IntName         .... acrolien.1093
 Hartree-Fock type      HFTyp           .... RHF
 Total Charge           Charge          ....    0
 Multiplicity           Mult            ....    1
 Number of Electrons    NEL             ....   30
 Basis Dimension        Dim             ....   44
 Nuclear Repulsion      ENuc            ....    105.6889585438 Eh

Convergence Acceleration:
 DIIS                   CNVDIIS         .... on
   Start iteration      DIISMaxIt       ....    12
   Startup error        DIISStart       ....  0.200000
   # of expansion vecs  DIISMaxEq       ....     5
   Bias factor          DIISBfac        ....   1.050
   Max. coefficient     DIISMaxC        ....  10.000
 Trust-Rad. Augm. Hess. CNVTRAH         .... auto
   Auto Start mean grad. ratio tolernc. ....  1.125000
   Auto Start start iteration           ....    20
   Auto Start num. interpolation iter.  ....    10
   Max. Number of Micro iterations      ....    16
   Max. Number of Macro iterations      .... Maxiter - #DIIS iter
   Number of Davidson start vectors     ....     2
   Converg. threshold I  (grad. norm)   ....   1.000e-05
   Converg. threshold II (energy diff.) ....   1.000e-08
   Grad. Scal. Fac. for Micro threshold ....   0.100
   Minimum threshold for Micro iter.    ....   0.010
   NR start threshold (gradient norm)   ....   0.001
   Initial trust radius                 ....   0.400
   Minimum AH scaling param. (alpha)    ....   1.000
   Maximum AH scaling param. (alpha)    .... 1000.000
   Orbital update algorithm             .... Taylor
   White noise on init. David. guess    .... on
   Maximum white noise                  ....   0.010
   Quad. conv. algorithm                .... NR
 SOSCF                  CNVSOSCF        .... on
   Start iteration      SOSCFMaxIt      ....   150
   Startup grad/error   SOSCFStart      ....  0.003300
 Level Shifting         CNVShift        .... on
   Level shift para.    LevelShift      ....    0.2500
   Turn off err/grad.   ShiftErr        ....    0.0010
 Zerner damping         CNVZerner       .... off
 Static damping         CNVDamp         .... on
   Fraction old density DampFac         ....    0.7000
   Max. Damping (<1)    DampMax         ....    0.9800
   Min. Damping (>=0)   DampMin         ....    0.0000
   Turn off err/grad.   DampErr         ....    0.1000
 Fernandez-Rico         CNVRico         .... off

SCF Procedure:
 Maximum # iterations   MaxIter         ....   500
 SCF integral mode      SCFMode         .... Direct
   Integral package                     .... SHARK and LIBINT hybrid scheme
 Reset frequency        DirectResetFreq ....    20
 Integral Threshold     Thresh          ....  2.500e-11 Eh
 Primitive CutOff       TCut            ....  2.500e-12 Eh

Convergence Tolerance:
 Convergence Check Mode ConvCheckMode   .... Total+1el-Energy
 Convergence forced     ConvForced      .... 1
 Energy Change          TolE            ....  1.000e-08 Eh
 1-El. energy change                    ....  1.000e-05 Eh
 Orbital Gradient       TolG            ....  1.000e-05
 Orbital Rotation angle TolX            ....  1.000e-05
 DIIS Error             TolErr          ....  5.000e-07


Diagonalization of the overlap matrix:
Smallest eigenvalue                        ... 5.984e-03
Time for diagonalization                   ...    0.056 sec
Threshold for overlap eigenvalues          ... 1.000e-08
Number of eigenvalues below threshold      ... 0
Time for construction of square roots      ...    0.070 sec
Total time needed                          ...    0.125 sec

Time for model grid setup =    0.104 sec

------------------------------
INITIAL GUESS: MODEL POTENTIAL
------------------------------
Loading Hartree-Fock densities                     ... done
Calculating cut-offs                               ... done
Initializing the effective Hamiltonian             ... done
Setting up the integral package (SHARK)            ... done
Starting the Coulomb interaction                   ... done (   0.5 sec)
Reading the grid                                   ... done
Mapping shells                                     ... done
Starting the XC term evaluation                    ... done (   0.0 sec)
  promolecular density results
     # of electrons  =     29.998831164
     EX              =    -24.777041969
     EC              =     -0.998027971
     EX+EC           =    -25.775069940
Transforming the Hamiltonian                       ... done (   0.3 sec)
Diagonalizing the Hamiltonian                      ... done (   0.0 sec)
Back transforming the eigenvectors                 ... done (   0.0 sec)
Now organizing SCF variables                       ... done
                      ------------------
                      INITIAL GUESS DONE (   1.1 sec)
                      ------------------
-------------------
DFT GRID GENERATION
-------------------

General Integration Accuracy     IntAcc      ... 4.388
Radial Grid Type                 RadialGrid  ... OptM3 with GC (2021)
Angular Grid (max. ang.)         AngularGrid ... 4 (Lebedev-302)
Angular grid pruning method      GridPruning ... 4 (adaptive)
Weight generation scheme         WeightScheme... Becke
Basis function cutoff            BFCut       ... 1.0000e-11
Integration weight cutoff        WCut        ... 1.0000e-14
Angular grids for H and He will be reduced by one unit
Partially contracted basis set               ... off
Rotationally invariant grid construction     ... off

Total number of grid points                  ...    37390
Total number of batches                      ...      588
Average number of points per batch           ...       63
Average number of grid points per atom       ...     4674
Time for grid setup =    0.242 sec

--------------------
COSX GRID GENERATION
--------------------

GRIDX 1
-------
General Integration Accuracy     IntAcc      ... 3.816
Radial Grid Type                 RadialGrid  ... OptM3 with GC (2021)
Angular Grid (max. ang.)         AngularGrid ... 1 (Lebedev-50)
Angular grid pruning method      GridPruning ... 4 (adaptive)
Weight generation scheme         WeightScheme... Becke
Basis function cutoff            BFCut       ... 1.0000e-11
Integration weight cutoff        WCut        ... 1.0000e-14
Angular grids for H and He will be reduced by one unit
Partially contracted basis set               ... on
Rotationally invariant grid construction     ... off

Total number of grid points                  ...     4800
Total number of batches                      ...       79
Average number of points per batch           ...       60
Average number of grid points per atom       ...      600
UseSFitting                                  ... on

GRIDX 2
-------
General Integration Accuracy     IntAcc      ... 4.020
Radial Grid Type                 RadialGrid  ... OptM3 with GC (2021)
Angular Grid (max. ang.)         AngularGrid ... 2 (Lebedev-110)
Angular grid pruning method      GridPruning ... 4 (adaptive)
Weight generation scheme         WeightScheme... Becke
Basis function cutoff            BFCut       ... 1.0000e-11
Integration weight cutoff        WCut        ... 1.0000e-14
Angular grids for H and He will be reduced by one unit
Partially contracted basis set               ... on
Rotationally invariant grid construction     ... off

Total number of grid points                  ...    10547
Total number of batches                      ...      168
Average number of points per batch           ...       62
Average number of grid points per atom       ...     1318
UseSFitting                                  ... on

GRIDX 3
-------
General Integration Accuracy     IntAcc      ... 4.338
Radial Grid Type                 RadialGrid  ... OptM3 with GC (2021)
Angular Grid (max. ang.)         AngularGrid ... 3 (Lebedev-194)
Angular grid pruning method      GridPruning ... 4 (adaptive)
Weight generation scheme         WeightScheme... Becke
Basis function cutoff            BFCut       ... 1.0000e-11
Integration weight cutoff        WCut        ... 1.0000e-14
Angular grids for H and He will be reduced by one unit
Partially contracted basis set               ... on
Rotationally invariant grid construction     ... off

Total number of grid points                  ...    23325
Total number of batches                      ...      368
Average number of points per batch           ...       63
Average number of grid points per atom       ...     2916
UseSFitting                                  ... on

Time for X-Grid setup             =    2.270 sec

--------------
SCF ITERATIONS
--------------
ITER       Energy         Delta-E        Max-DP      RMS-DP      [F,P]     Damp
               ***  Starting incremental Fock matrix formation  ***
  0   -191.5572423111   0.000000000000 0.08962182  0.00746813  0.2436593 0.7000
  1   -191.6238737383  -0.066631427221 0.05031782  0.00471764  0.0927351 0.7000
                               ***Turning on DIIS***
  2   -191.6469893012  -0.023115562873 0.07253477  0.00654987  0.0334299 0.0000
  3   -191.6869077637  -0.039918462433 0.03516489  0.00340425  0.0456123 0.0000
  4   -191.6942693633  -0.007361599659 0.01038525  0.00107633  0.0141831 0.0000
                      *** Initiating the SOSCF procedure ***
                           *** Shutting down DIIS ***
                      *** Re-Reading the Fockian *** 
                      *** Removing any level shift *** 
ITER      Energy       Delta-E        Grad      Rot      Max-DP    RMS-DP
  5   -191.69513156  -0.0008621933  0.000603  0.000603  0.004690  0.000302
               *** Restarting incremental Fock matrix formation ***
  6   -191.69511606   0.0000154940  0.000392  0.001512  0.001723  0.000153
  7   -191.69511507   0.0000009962  0.000582  0.000834  0.000995  0.000072
  8   -191.69511839  -0.0000033262  0.000049  0.000100  0.000221  0.000025
  9   -191.69511837   0.0000000222  0.000063  0.000044  0.000126  0.000011
 10   -191.69511847  -0.0000000984  0.000010  0.000024  0.000035  0.000003
 11   -191.69511847   0.0000000029  0.000019  0.000016  0.000024  0.000002
                  ***Gradient check signals convergence***
              ***Rediagonalizing the Fockian in SOSCF/NRSCF***

               *****************************************************
               *                     SUCCESS                       *
               *           SCF CONVERGED AFTER  12 CYCLES          *
               *****************************************************

Old exchange energy                            =     -5.034822470 Eh
New exchange energy                            =     -5.034816455 Eh
Exchange energy change after final integration =      0.000006015 Eh
Total energy after final integration           =   -191.695112454 Eh
Final COS-X integration done in                =     0.800 sec

----------------
TOTAL SCF ENERGY
----------------

Total Energy       :         -191.69511245 Eh           -5216.28920 eV

Components:
Nuclear Repulsion  :          105.68895854 Eh            2875.94277 eV
Electronic Energy  :         -297.38407100 Eh           -8092.23197 eV
One Electron Energy:         -468.20072928 Eh          -12740.38955 eV
Two Electron Energy:          170.81665828 Eh            4648.15758 eV
Max COSX asymmetry :            0.00000077 Eh               0.00002 eV

Virial components:
Potential Energy   :         -382.90819126 Eh          -10419.46160 eV
Kinetic Energy     :          191.21307880 Eh            5203.17240 eV
Virial Ratio       :            2.00252092


DFT components:
N(Alpha)           :       15.000003146982 electrons
N(Beta)            :       15.000003146982 electrons
N(Total)           :       30.000006293963 electrons
E(X)               :      -20.033586260742 Eh       
E(C)               :       -1.185988400512 Eh       
E(XC)              :      -21.219574661253 Eh       
DFET-embed. en.    :        0.000000000000 Eh       

---------------
SCF CONVERGENCE
---------------

  Last Energy change         ...   -3.6088e-09  Tolerance :   1.0000e-08
  Last MAX-Density change    ...    3.1086e-15  Tolerance :   1.0000e-07
  Last RMS-Density change    ...    1.1912e-16  Tolerance :   5.0000e-09
  Last Orbital Gradient      ...    3.7478e-07  Tolerance :   1.0000e-05
  Last Orbital Rotation      ...    7.1894e-07  Tolerance :   1.0000e-05

             **** THE GBW FILE WAS UPDATED (acrolien.1093.gbw) ****
             **** DENSITY acrolien.1093.scfp WAS UPDATED ****
             **** ENERGY FILE WAS UPDATED (acrolien.1093.en.tmp) ****
             **** THE GBW FILE WAS UPDATED (acrolien.1093.gbw) ****
             **** DENSITY acrolien.1093.scfp WAS UPDATED ****
----------------
ORBITAL ENERGIES
----------------

  NO   OCC          E(Eh)            E(eV) 
   0   2.0000     -19.147681      -521.0349 
   1   2.0000     -10.269429      -279.4454 
   2   2.0000     -10.210149      -277.8323 
   3   2.0000     -10.192357      -277.3481 
   4   2.0000      -1.107130       -30.1265 
   5   2.0000      -0.803218       -21.8567 
   6   2.0000      -0.646111       -17.5816 
   7   2.0000      -0.558373       -15.1941 
   8   2.0000      -0.512608       -13.9488 
   9   2.0000      -0.464288       -12.6339 
  10   2.0000      -0.440665       -11.9911 
  11   2.0000      -0.403462       -10.9788 
  12   2.0000      -0.377856       -10.2820 
  13   2.0000      -0.293158        -7.9772 
  14   2.0000      -0.243538        -6.6270 
  15   0.0000      -0.033666        -0.9161 
  16   0.0000       0.026529         0.7219 
  17   0.0000       0.090681         2.4676 
  18   0.0000       0.139434         3.7942 
  19   0.0000       0.154670         4.2088 
  20   0.0000       0.191044         5.1986 
  21   0.0000       0.282418         7.6850 
  22   0.0000       0.306110         8.3297 
  23   0.0000       0.330759         9.0004 
  24   0.0000       0.517829        14.0909 
  25   0.0000       0.530290        14.4299 
  26   0.0000       0.567185        15.4339 
  27   0.0000       0.630402        17.1541 
  28   0.0000       0.634894        17.2763 
  29   0.0000       0.672590        18.3021 
  30   0.0000       0.728804        19.8318 
  31   0.0000       0.775544        21.1036 
  32   0.0000       0.798395        21.7254 
  33   0.0000       0.834420        22.7057 
  34   0.0000       0.894579        24.3427 
  35   0.0000       0.941768        25.6268 
  36   0.0000       0.953590        25.9485 
  37   0.0000       0.979092        26.6424 
  38   0.0000       1.014022        27.5930 
  39   0.0000       1.023786        27.8586 
  40   0.0000       1.142228        31.0816 
  41   0.0000       1.163986        31.6737 
  42   0.0000       1.236490        33.6466 
  43   0.0000       1.746040        47.5122 

                    ********************************
                    * MULLIKEN POPULATION ANALYSIS *
                    ********************************

-----------------------
MULLIKEN ATOMIC CHARGES
-----------------------
   0 C :    0.142144
   1 O :   -0.309201
   2 C :   -0.110753
   3 C :   -0.273158
   4 H :    0.088421
   5 H :    0.161743
   6 H :    0.170340
   7 H :    0.130464
Sum of atomic charges:    0.0000000

--------------------------------
MULLIKEN REDUCED ORBITAL CHARGES
--------------------------------
  0 C s       :     3.181409  s :     3.181409
      pz      :     0.848039  p :     2.676447
      px      :     1.004080
      py      :     0.824328
  1 O s       :     3.909696  s :     3.909696
      pz      :     1.400088  p :     4.399505
      px      :     1.674730
      py      :     1.324687
  2 C s       :     3.213864  s :     3.213864
      pz      :     0.989198  p :     2.896889
      px      :     0.931066
      py      :     0.976625
  3 C s       :     3.254917  s :     3.254917
      pz      :     0.987121  p :     3.018241
      px      :     1.010988
      py      :     1.020132
  4 H s       :     0.911579  s :     0.911579
  5 H s       :     0.838257  s :     0.838257
  6 H s       :     0.829660  s :     0.829660
  7 H s       :     0.869536  s :     0.869536


                     *******************************
                     * LOEWDIN POPULATION ANALYSIS *
                     *******************************

----------------------
LOEWDIN ATOMIC CHARGES
----------------------
   0 C :    0.105467
   1 O :   -0.194801
   2 C :   -0.155890
   3 C :   -0.200637
   4 H :    0.060988
   5 H :    0.135497
   6 H :    0.133653
   7 H :    0.115724

-------------------------------
LOEWDIN REDUCED ORBITAL CHARGES
-------------------------------
  0 C s       :     2.970153  s :     2.970153
      pz      :     0.898235  p :     2.924380
      px      :     1.027342
      py      :     0.998803
  1 O s       :     3.594888  s :     3.594888
      pz      :     1.439688  p :     4.599913
      px      :     1.714739
      py      :     1.445486
  2 C s       :     2.984913  s :     2.984913
      pz      :     0.997778  p :     3.170978
      px      :     1.099767
      py      :     1.073432
  3 C s       :     2.981737  s :     2.981737
      pz      :     0.990801  p :     3.218900
      px      :     1.115609
      py      :     1.112490
  4 H s       :     0.939012  s :     0.939012
  5 H s       :     0.864503  s :     0.864503
  6 H s       :     0.866347  s :     0.866347
  7 H s       :     0.884276  s :     0.884276


                      *****************************
                      * MAYER POPULATION ANALYSIS *
                      *****************************

  NA   - Mulliken gross atomic population
  ZA   - Total nuclear charge
  QA   - Mulliken gross atomic charge
  VA   - Mayer's total valence
  BVA  - Mayer's bonded valence
  FA   - Mayer's free valence

  ATOM       NA         ZA         QA         VA         BVA        FA
  0 C      5.8579     6.0000     0.1421     3.7691     3.7691     0.0000
  1 O      8.3092     8.0000    -0.3092     2.0430     2.0430     0.0000
  2 C      6.1108     6.0000    -0.1108     3.7293     3.7293     0.0000
  3 C      6.2732     6.0000    -0.2732     3.8883     3.8883     0.0000
  4 H      0.9116     1.0000     0.0884     0.9254     0.9254     0.0000
  5 H      0.8383     1.0000     0.1617     0.9447     0.9447    -0.0000
  6 H      0.8297     1.0000     0.1703     0.9307     0.9307    -0.0000
  7 H      0.8695     1.0000     0.1305     0.9407     0.9407     0.0000

  Mayer bond orders larger than 0.100000
B(  0-C ,  1-O ) :   1.9470 B(  0-C ,  2-C ) :   0.9063 B(  0-C ,  4-H ) :   0.8853 
B(  2-C ,  3-C ) :   1.9366 B(  2-C ,  5-H ) :   0.9183 B(  3-C ,  6-H ) :   0.9358 
B(  3-C ,  7-H ) :   0.9476 

-------
TIMINGS
-------

Total SCF time: 0 days 0 hours 0 min 35 sec 

Total time                  ....      35.265 sec
Sum of individual times     ....      28.321 sec  ( 80.3%)

Fock matrix formation       ....      24.726 sec  ( 70.1%)
  Split-RI-J                ....       0.579 sec  (  2.3% of F)
  Chain of spheres X        ....       4.427 sec  ( 17.9% of F)
  XC integration            ....       8.697 sec  ( 35.2% of F)
    Basis function eval.    ....       0.933 sec  ( 10.7% of XC)
    Density eval.           ....       0.498 sec  (  5.7% of XC)
    XC-Functional eval.     ....       0.548 sec  (  6.3% of XC)
    XC-Potential eval.      ....       0.232 sec  (  2.7% of XC)
Diagonalization             ....       0.003 sec  (  0.0%)
Density matrix formation    ....       0.000 sec  (  0.0%)
Population analysis         ....       0.002 sec  (  0.0%)
Initial guess               ....       0.970 sec  (  2.8%)
Orbital Transformation      ....       0.000 sec  (  0.0%)
Orbital Orthonormalization  ....       0.000 sec  (  0.0%)
DIIS solution               ....       0.001 sec  (  0.0%)
SOSCF solution              ....       0.002 sec  (  0.0%)
Grid generation             ....       2.616 sec  (  7.4%)

Maximum memory used throughout the entire SCF-calculation: 46.8 MB
------------------------------------------------------------------------------
                        ORCA TD-DFT/TDA CALCULATION
------------------------------------------------------------------------------

Input orbitals are from        ... acrolien.1093.gbw
CI-vector output               ... acrolien.1093.cis
Tamm-Dancoff approximation     ... operative
CIS-Integral strategy          ... AO-integrals
Integral handling              ... AO integral Direct
Max. core memory used          ... 512 MB
Reference state                ... RHF
Generation of triplets         ... off
Follow IRoot                   ... off
Number of operators            ... 1
Orbital ranges used for CIS calculation:
 Operator 0:  Orbitals   4... 14  to  15... 43
XAS localization array:
 Operator 0:  Orbitals  -1... -1

-------------------
XC-INTEGRATION GRID
-------------------

General Integration Accuracy     IntAcc      ... 3.467
Radial Grid Type                 RadialGrid  ... OptM3 with GC (2021)
Angular Grid (max. ang.)         AngularGrid ... 1 (Lebedev-50)
Angular grid pruning method      GridPruning ... 4 (adaptive)
Weight generation scheme         WeightScheme... Becke
Basis function cutoff            BFCut       ... 1.0000e-11
Integration weight cutoff        WCut        ... 1.0000e-14
Angular grids for H and He will be reduced by one unit
Partially contracted basis set               ... off
Rotationally invariant grid construction     ... off

Total number of grid points                  ...     5499
Total number of batches                      ...       91
Average number of points per batch           ...       60
Average number of grid points per atom       ...      687

---------------------
COSX-INTEGRATION GRID
---------------------

General Integration Accuracy     IntAcc      ... 3.067
Radial Grid Type                 RadialGrid  ... OptM3 with GC (2021)
Angular Grid (max. ang.)         AngularGrid ... 1 (Lebedev-50)
Angular grid pruning method      GridPruning ... 4 (adaptive)
Weight generation scheme         WeightScheme... Becke
Basis function cutoff            BFCut       ... 1.0000e-11
Integration weight cutoff        WCut        ... 1.0000e-14
Angular grids for H and He will be reduced by one unit
Partially contracted basis set               ... on
Rotationally invariant grid construction     ... off

Total number of grid points                  ...     2508
Total number of batches                      ...       45
Average number of points per batch           ...       55
Average number of grid points per atom       ...      314

---------------
TD-DFT XC SETUP
---------------

DFT calculation                         ... on
Name of the grid file                   ... acrolien.1093.grid_cis.tmp
Exchange functional (TD-DFT)            ... B88
   X-Alpha parameter    XAlpha (TD-DFT) ...  0.666667
   Becke's b parameter  XBeta (TD-DFT)  ...  0.004200
Correlation functional (TD-DFT)         ... LYP
 LDA part of GGA corr.  LDAOpt (TD-DFT) ... VWN-5
Hybrid DFT                              ... on
   Exchange mixing (TD-DFT)             ...  0.200
   GGA exch. scaling (TD-DFT)           ...  0.720
   GGA corr. scaling (TD-DFT)           ...  0.810

Building densities             ... done
Calculating rho(r) on the grid ... done
Building xc-kernel on the grid ... done
                    *** TD-DFT CALCULATION INITIALIZED ***

------------------------
DAVIDSON-DIAGONALIZATION
------------------------

Dimension of the eigenvalue problem            ...    319
Number of roots to be determined               ...      1
Maximum size of the expansion space            ...     10
Maximum number of iterations                   ...    100
Convergence tolerance for the residual         ...    2.500e-07
Convergence tolerance for the energies         ...    2.500e-07
Orthogonality tolerance                        ...    1.000e-14
Level Shift                                    ...    0.000e+00
Constructing the preconditioner                ... o.k.
Building the initial guess                     ... o.k.
Number of trial vectors determined             ...     10


                       ****Iteration    0****

   Memory handling for direct AO based CIS:
   Memory per vector needed      ...     1 MB
   Memory needed                 ...     0 MB
   Memory available              ...   512 MB
   Number of vectors per batch   ...   512
   Number of batches             ...     1
   Time for densities:            0.000
   Time for RI-J (Direct):        0.043
   Time for K (COSX):             0.116
   Time for XC-Integration:       0.039
   Time for Sigma-Completion:     0.000
   Size of expansion space: 3
   Lowest Energy          :     0.149630143638
   Maximum Energy change  :     0.149630143638 (vector 0)
   Maximum residual norm  :     0.000889168163

                       ****Iteration    1****
   Time for densities:            0.000
   Time for RI-J (Direct):        0.034
   Time for K (COSX):             0.107
   Time for XC-Integration:       0.022
   Time for Sigma-Completion:     0.000
   Size of expansion space: 4
   Lowest Energy          :     0.147872151984
   Maximum Energy change  :     0.001757991654 (vector 0)
   Maximum residual norm  :     0.000123835843

                       ****Iteration    2****
   Time for densities:            0.000
   Time for RI-J (Direct):        0.035
   Time for K (COSX):             1.158
   Time for XC-Integration:       0.023
   Time for Sigma-Completion:     0.000
   Size of expansion space: 5
   Lowest Energy          :     0.147730935450
   Maximum Energy change  :     0.000141216534 (vector 0)
   Maximum residual norm  :     0.000013422588

                       ****Iteration    3****
   Time for densities:            0.000
   Time for RI-J (Direct):        0.034
   Time for K (COSX):             0.107
   Time for XC-Integration:       0.022
   Time for Sigma-Completion:     0.000
   Size of expansion space: 6
   Lowest Energy          :     0.147717688516
   Maximum Energy change  :     0.000013246934 (vector 0)
   Maximum residual norm  :     0.000001353019

                       ****Iteration    4****
   Time for densities:            0.000
   Time for RI-J (Direct):        0.035
   Time for K (COSX):             0.116
   Time for XC-Integration:       0.023
   Time for Sigma-Completion:     0.000
   Size of expansion space: 7
   Lowest Energy          :     0.147716096044
   Maximum Energy change  :     0.000001592472 (vector 0)
   Maximum residual norm  :     0.000000031022

      *** CONVERGENCE OF RESIDUAL NORM REACHED ***

Storing the converged CI vectors               ... acrolien.1093.cis1

                 *** DAVIDSON DONE ***

Total time for solving the CIS problem:     2.554sec

------------------------------------
TD-DFT/TDA EXCITED STATES (SINGLETS)
------------------------------------

the weight of the individual excitations are printed if larger than 1.0e-02

STATE  1:  E=   0.147716 au      4.020 eV    32419.9 cm**-1 <S**2> =   0.000000
    14a ->  15a  :     0.956285 (c=  0.97789830)
    14a ->  16a  :     0.036573 (c= -0.19124176)


-----------------------------
TD-DFT/TDA-EXCITATION SPECTRA
-----------------------------

Center of mass = ( -0.6725, -0.6573,  0.1813)
Calculating the Dipole integrals                  ... done
Transforming integrals                            ... done
Calculating the Linear Momentum integrals         ... done
Transforming integrals                            ... done
Calculating angular momentum integrals            ... done
Transforming integrals                            ... done

-----------------------------------------------------------------------------
         ABSORPTION SPECTRUM VIA TRANSITION ELECTRIC DIPOLE MOMENTS
-----------------------------------------------------------------------------
State   Energy    Wavelength  fosc         T2        TX        TY        TZ  
        (cm-1)      (nm)                 (au**2)    (au)      (au)      (au) 
-----------------------------------------------------------------------------
   1   32419.9    308.5   0.001083711   0.01100   0.10049   0.02719   0.01293

-----------------------------------------------------------------------------
         ABSORPTION SPECTRUM VIA TRANSITION VELOCITY DIPOLE MOMENTS
-----------------------------------------------------------------------------
State   Energy    Wavelength   fosc        P2         PX        PY        PZ  
        (cm-1)      (nm)                 (au**2)     (au)      (au)      (au) 
-----------------------------------------------------------------------------
   1   32419.9    308.5   0.000386703   0.00009   0.00612  -0.00515   0.00465

-------------------------------------------------------------------
                             CD SPECTRUM
-------------------------------------------------------------------
State  Energy     Wavelength     R         MX        MY        MZ   
       (cm-1)       (nm)     (1e40*cgs)   (au)      (au)      (au)  
-------------------------------------------------------------------
   1   32419.9    308.5     -9.57751  -0.13148  -0.36366   0.21544

-------------------------------------------------------------------
         CD SPECTRUM VIA TRANSITION VELOCITY DIPOLE MOMENTS        
-------------------------------------------------------------------
State  Energy     Wavelength     R         MX        MY        MZ   
       (cm-1)       (nm)     (1e40*cgs)   (au)      (au)      (au)  
-------------------------------------------------------------------
   1   32419.9    308.5      6.61037  -0.13148  -0.36366   0.21544

Total run time:        5.935 sec

           *** ORCA-CIS/TD-DFT FINISHED WITHOUT ERROR ***

Maximum memory used throughout the entire CIS-calculation: 42.9 MB

-----------------------
CIS/TD-DFT TOTAL ENERGY
-----------------------

    E(SCF)  =   -191.695112454 Eh
    DE(CIS) =      0.147716096 Eh (Root  1)
    ----------------------------- ---------
    E(tot)  =   -191.547396358 Eh


-------------------------   --------------------
FINAL SINGLE POINT ENERGY      -191.547396358133
-------------------------   --------------------


                            ***************************************
                            *     ORCA property calculations      *
                            ***************************************

                                    ---------------------
                                    Active property flags
                                    ---------------------
   (+) Dipole Moment


------------------------------------------------------------------------------
                       ORCA ELECTRIC PROPERTIES CALCULATION
------------------------------------------------------------------------------

Dipole Moment Calculation                       ... on
Quadrupole Moment Calculation                   ... off
Polarizability Calculation                      ... off
GBWName                                         ... acrolien.1093.gbw
Electron density                                ... acrolien.1093.scfp
The origin for moment calculation is the CENTER OF MASS  = (-0.672498, -0.657301  0.181335)

-------------
DIPOLE MOMENT
-------------
                                X             Y             Z
Electronic contribution:     -2.10369      -1.68900       0.39261
Nuclear contribution   :      2.52755       2.54243      -0.69404
                        -----------------------------------------
Total Dipole Moment    :      0.42386       0.85343      -0.30142
                        -----------------------------------------
Magnitude (a.u.)       :      0.99942
Magnitude (Debye)      :      2.54034



--------------------
Rotational spectrum 
--------------------
 
Rotational constants in cm-1:     0.842692     0.195736     0.167595 
Rotational constants in MHz : 25263.280453  5868.008769  5024.372428 

 Dipole components along the rotational axes: 
x,y,z [a.u.] :     0.824227    -0.524905    -0.209701 
x,y,z [Debye]:     2.095018    -1.334202    -0.533018 

 

Timings for individual modules:

Sum of individual times         ...       43.287 sec (=   0.721 min)
GTO integral calculation        ...        1.628 sec (=   0.027 min)   3.8 %
SCF iterations                  ...       35.716 sec (=   0.595 min)  82.5 %
CIS module                      ...        5.943 sec (=   0.099 min)  13.7 %
                             ****ORCA TERMINATED NORMALLY****
TOTAL RUN TIME: 0 days 0 hours 1 minutes 1 seconds 636 msec
