
                                 *****************
                                 * O   R   C   A *
                                 *****************

                                            #,                                       
                                            ###                                      
                                            ####                                     
                                            #####                                    
                                            ######                                   
                                           ########,                                 
                                     ,,################,,,,,                         
                               ,,#################################,,                 
                          ,,##########################################,,             
                       ,#########################################, ''#####,          
                    ,#############################################,,   '####,        
                  ,##################################################,,,,####,       
                ,###########''''           ''''###############################       
              ,#####''   ,,,,##########,,,,          '''####'''          '####       
            ,##' ,,,,###########################,,,                        '##       
           ' ,,###''''                  '''############,,,                           
         ,,##''                                '''############,,,,        ,,,,,,###''
      ,#''                                            '''#######################'''  
     '                                                          ''''####''''         
             ,#######,   #######,   ,#######,      ##                                
            ,#'     '#,  ##    ##  ,#'     '#,    #''#        ######   ,####,        
            ##       ##  ##   ,#'  ##            #'  '#       #        #'  '#        
            ##       ##  #######   ##           ,######,      #####,   #    #        
            '#,     ,#'  ##    ##  '#,     ,#' ,#      #,         ##   #,  ,#        
             '#######'   ##     ##  '#######'  #'      '#     #####' # '####'        



                  #######################################################
                  #                        -***-                        #
                  #          Department of theory and spectroscopy      #
                  #    Directorship and core code : Frank Neese         #
                  #        Max Planck Institute fuer Kohlenforschung    #
                  #                Kaiser Wilhelm Platz 1               #
                  #                 D-45470 Muelheim/Ruhr               #
                  #                      Germany                        #
                  #                                                     #
                  #                  All rights reserved                #
                  #                        -***-                        #
                  #######################################################


                         Program Version 5.0.3 -  RELEASE  -


 With contributions from (in alphabetic order):
   Daniel Aravena         : Magnetic Suceptibility
   Michael Atanasov       : Ab Initio Ligand Field Theory (pilot matlab implementation)
   Alexander A. Auer      : GIAO ZORA, VPT2 properties, NMR spectrum
   Ute Becker             : Parallelization
   Giovanni Bistoni       : ED, misc. LED, open-shell LED, HFLD
   Martin Brehm           : Molecular dynamics
   Dmytro Bykov           : SCF Hessian
   Vijay G. Chilkuri      : MRCI spin determinant printing, contributions to CSF-ICE
   Dipayan Datta          : RHF DLPNO-CCSD density
   Achintya Kumar Dutta   : EOM-CC, STEOM-CC
   Dmitry Ganyushin       : Spin-Orbit,Spin-Spin,Magnetic field MRCI
   Miquel Garcia          : C-PCM and meta-GGA Hessian, CC/C-PCM, Gaussian charge scheme
   Yang Guo               : DLPNO-NEVPT2, F12-NEVPT2, CIM, IAO-localization
   Andreas Hansen         : Spin unrestricted coupled pair/coupled cluster methods
   Benjamin Helmich-Paris : MC-RPA, TRAH-SCF, COSX integrals
   Lee Huntington         : MR-EOM, pCC
   Robert Izsak           : Overlap fitted RIJCOSX, COSX-SCS-MP3, EOM
   Marcus Kettner         : VPT2
   Christian Kollmar      : KDIIS, OOCD, Brueckner-CCSD(T), CCSD density, CASPT2, CASPT2-K
   Simone Kossmann        : Meta GGA functionals, TD-DFT gradient, OOMP2, MP2 Hessian
   Martin Krupicka        : Initial AUTO-CI
   Lucas Lang             : DCDCAS
   Marvin Lechner         : AUTO-CI (C++ implementation), FIC-MRCC
   Dagmar Lenk            : GEPOL surface, SMD
   Dimitrios Liakos       : Extrapolation schemes; Compound Job, initial MDCI parallelization
   Dimitrios Manganas     : Further ROCIS development; embedding schemes
   Dimitrios Pantazis     : SARC Basis sets
   Anastasios Papadopoulos: AUTO-CI, single reference methods and gradients
   Taras Petrenko         : DFT Hessian,TD-DFT gradient, ASA, ECA, R-Raman, ABS, FL, XAS/XES, NRVS
   Peter Pinski           : DLPNO-MP2, DLPNO-MP2 Gradient
   Christoph Reimann      : Effective Core Potentials
   Marius Retegan         : Local ZFS, SOC
   Christoph Riplinger    : Optimizer, TS searches, QM/MM, DLPNO-CCSD(T), (RO)-DLPNO pert. Triples
   Tobias Risthaus        : Range-separated hybrids, TD-DFT gradient, RPA, STAB
   Michael Roemelt        : Original ROCIS implementation
   Masaaki Saitow         : Open-shell DLPNO-CCSD energy and density
   Barbara Sandhoefer     : DKH picture change effects
   Avijit Sen             : IP-ROCIS
   Kantharuban Sivalingam : CASSCF convergence, NEVPT2, FIC-MRCI
   Bernardo de Souza      : ESD, SOC TD-DFT
   Georgi Stoychev        : AutoAux, RI-MP2 NMR, DLPNO-MP2 response
   Willem Van den Heuvel  : Paramagnetic NMR
   Boris Wezisla          : Elementary symmetry handling
   Frank Wennmohs         : Technical directorship


 We gratefully acknowledge several colleagues who have allowed us to
 interface, adapt or use parts of their codes:
   Stefan Grimme, W. Hujo, H. Kruse, P. Pracht,  : VdW corrections, initial TS optimization,
                  C. Bannwarth, S. Ehlert          DFT functionals, gCP, sTDA/sTD-DF
   Ed Valeev, F. Pavosevic, A. Kumar             : LibInt (2-el integral package), F12 methods
   Garnet Chan, S. Sharma, J. Yang, R. Olivares  : DMRG
   Ulf Ekstrom                                   : XCFun DFT Library
   Mihaly Kallay                                 : mrcc  (arbitrary order and MRCC methods)
   Jiri Pittner, Ondrej Demel                    : Mk-CCSD
   Frank Weinhold                                : gennbo (NPA and NBO analysis)
   Christopher J. Cramer and Donald G. Truhlar   : smd solvation model
   Lars Goerigk                                  : TD-DFT with DH, B97 family of functionals
   V. Asgeirsson, H. Jonsson                     : NEB implementation
   FAccTs GmbH                                   : IRC, NEB, NEB-TS, DLPNO-Multilevel, CI-OPT
                                                   MM, QMMM, 2- and 3-layer-ONIOM, Crystal-QMMM,
                                                   LR-CPCM, SF, NACMEs, symmetry and pop. for TD-DFT,
                                                   nearIR, NL-DFT gradient (VV10), updates on ESD,
                                                   ML-optimized integration grids
   S Lehtola, MJT Oliveira, MAL Marques          : LibXC Library
   Liviu Ungur et al                             : ANISO software


 Your calculation uses the libint2 library for the computation of 2-el integrals
 For citations please refer to: http://libint.valeyev.net

 Your ORCA version has been built with support for libXC version: 5.1.0
 For citations please refer to: https://tddft.org/programs/libxc/

 This ORCA versions uses:
   CBLAS   interface :  Fast vector & matrix operations
   LAPACKE interface :  Fast linear algebra routines
   SCALAPACK package :  Parallel linear algebra routines
   Shared memory     :  Shared parallel matrices
   BLAS/LAPACK       :  OpenBLAS 0.3.15  USE64BITINT DYNAMIC_ARCH NO_AFFINITY Haswell SINGLE_THREADED
        Core in use  :  Haswell
   Copyright (c) 2011-2014, The OpenBLAS Project


================================================================================

----- Orbital basis set information -----
Your calculation utilizes the basis: 6-31G
   H-He, Li-Ne : W. J. Hehre, R. Ditchfield and J.A. Pople, J. Chem. Phys. 56, 2257 (1972).
                 Note: He and Ne are unpublished basis sets taken from the Gaussian program.
                 Note: Li and B from J. D. Dill and J. A. Pople, J. Chem. Phys. 62, 2921 (1975).
   Na - Ar     : M. M. Francl, W. J. Pietro, W. J. Hehre, J. S. Binkley, M. S. Gordon, 
                 D. J. DeFrees and J. A. Pople, J. Chem. Phys. 77, 3654 (1982).
   K - Zn      : V. A. Rassolov, J. A. Pople, M. A. Ratner, and T. L. Windus, J. Chem. Phys. 109, 1223 (1998).

----- AuxJ basis set information -----
Your calculation utilizes the auxiliary basis: def2/J
   F. Weigend, Phys. Chem. Chem. Phys. 8, 1057 (2006).

================================================================================
                                        WARNINGS
                       Please study these warnings very carefully!
================================================================================

INFO   : Checking CIS options ...

INFO   : the flag for use of the SHARK integral package has been found!

================================================================================
                                       INPUT FILE
================================================================================
NAME = acrolien.49.com
|  1> ! B3LYP 6-31G
|  2> !TightSCF
|  3> %scf
|  4>  ConvForced true
|  5>  convergence tight
|  6>  MaxIter 500
|  7> end
|  8>  
|  9> %tddft 
| 10>  nroots 1
| 11> end
| 12> 
| 13> # 	17605
| 14> * xyz 0 1
| 15> 		C   -1.187750  -0.273937  -0.079819
| 16> 		O   -1.327110  -1.307654  -0.670209
| 17> 		C    0.065736   0.576581  -0.195454
| 18> 		C    1.238460   0.025161   0.124707
| 19> 		H   -1.983493   0.100466   0.927458
| 20> 		H   -0.077684   1.466135  -0.688419
| 21> 		H    0.996732  -1.120367   0.452664
| 22> 		H    2.271987   0.531330   0.120384
| 23> *
| 24> 
| 25>                          ****END OF INPUT****
================================================================================

                       ****************************
                       * Single Point Calculation *
                       ****************************

---------------------------------
CARTESIAN COORDINATES (ANGSTROEM)
---------------------------------
  C     -1.187750   -0.273937   -0.079819
  O     -1.327110   -1.307654   -0.670209
  C      0.065736    0.576581   -0.195454
  C      1.238460    0.025161    0.124707
  H     -1.983493    0.100466    0.927458
  H     -0.077684    1.466135   -0.688419
  H      0.996732   -1.120367    0.452664
  H      2.271987    0.531330    0.120384

----------------------------
CARTESIAN COORDINATES (A.U.)
----------------------------
  NO LB      ZA    FRAG     MASS         X           Y           Z
   0 C     6.0000    0    12.011   -2.244522   -0.517666   -0.150836
   1 O     8.0000    0    15.999   -2.507874   -2.471108   -1.266511
   2 C     6.0000    0    12.011    0.124223    1.089580   -0.369355
   3 C     6.0000    0    12.011    2.340350    0.047547    0.235662
   4 H     1.0000    0     1.008   -3.748259    0.189853    1.752642
   5 H     1.0000    0     1.008   -0.146801    2.770594   -1.300923
   6 H     1.0000    0     1.008    1.883551   -2.117187    0.855411
   7 H     1.0000    0     1.008    4.293433    1.004068    0.227493

--------------------------------
INTERNAL COORDINATES (ANGSTROEM)
--------------------------------
 C      0   0   0     0.000000000000     0.00000000     0.00000000
 O      1   0   0     1.198562638242     0.00000000     0.00000000
 C      1   2   0     1.519203565604   122.77139785     0.00000000
 C      3   1   2     1.334859042183   118.38232229   302.11615903
 H      1   2   3     1.337157987370   122.91235624   193.73231231
 H      3   1   2     1.027078432517   113.96635252   110.92815257
 H      4   3   1     1.215821787359   106.21459741     0.29868565
 H      4   3   1     1.150827443459   127.32960857   181.71786908

---------------------------
INTERNAL COORDINATES (A.U.)
---------------------------
 C      0   0   0     0.000000000000     0.00000000     0.00000000
 O      1   0   0     2.264955140627     0.00000000     0.00000000
 C      1   2   0     2.870878680669   122.77139785     0.00000000
 C      3   1   2     2.522518017114   118.38232229   302.11615903
 H      1   2   3     2.526862393914   122.91235624   193.73231231
 H      3   1   2     1.940896955514   113.96635252   110.92815257
 H      4   3   1     2.297570205763   106.21459741     0.29868565
 H      4   3   1     2.174748695539   127.32960857   181.71786908

---------------------
BASIS SET INFORMATION
---------------------
There are 3 groups of distinct atoms

 Group   1 Type C   : 10s4p contracted to 3s2p pattern {631/31}
 Group   2 Type O   : 10s4p contracted to 3s2p pattern {631/31}
 Group   3 Type H   : 4s contracted to 2s pattern {31}

Atom   0C    basis set group =>   1
Atom   1O    basis set group =>   2
Atom   2C    basis set group =>   1
Atom   3C    basis set group =>   1
Atom   4H    basis set group =>   3
Atom   5H    basis set group =>   3
Atom   6H    basis set group =>   3
Atom   7H    basis set group =>   3
---------------------------------
AUXILIARY/J BASIS SET INFORMATION
---------------------------------
There are 3 groups of distinct atoms

 Group   1 Type C   : 12s5p4d2f1g contracted to 6s4p3d1f1g pattern {711111/2111/211/2/1}
 Group   2 Type O   : 12s5p4d2f1g contracted to 6s4p3d1f1g pattern {711111/2111/211/2/1}
 Group   3 Type H   : 5s2p1d contracted to 3s1p1d pattern {311/2/1}

Atom   0C    basis set group =>   1
Atom   1O    basis set group =>   2
Atom   2C    basis set group =>   1
Atom   3C    basis set group =>   1
Atom   4H    basis set group =>   3
Atom   5H    basis set group =>   3
Atom   6H    basis set group =>   3
Atom   7H    basis set group =>   3
------------------------------------------------------------------------------
                           ORCA GTO INTEGRAL CALCULATION
                           -- RI-GTO INTEGRALS CHOSEN --
------------------------------------------------------------------------------
------------------------------------------------------------------------------
                   ___                                                        
                  /   \      - P O W E R E D   B Y -                         
                 /     \                                                     
                 |  |  |   _    _      __       _____    __    __             
                 |  |  |  | |  | |    /  \     |  _  \  |  |  /  |          
                  \  \/   | |  | |   /    \    | | | |  |  | /  /          
                 / \  \   | |__| |  /  /\  \   | |_| |  |  |/  /          
                |  |  |   |  __  | /  /__\  \  |    /   |      \           
                |  |  |   | |  | | |   __   |  |    \   |  |\   \          
                \     /   | |  | | |  |  |  |  | |\  \  |  | \   \       
                 \___/    |_|  |_| |__|  |__|  |_| \__\ |__|  \__/        
                                                                              
                      - O R C A' S   B I G   F R I E N D -                    
                                      &                                       
                       - I N T E G R A L  F E E D E R -                       
                                                                              
 v1 FN, 2020, v2 2021                                                         
------------------------------------------------------------------------------


Reading SHARK input file acrolien.49.SHARKINP.tmp ... ok
----------------------
SHARK INTEGRAL PACKAGE
----------------------

Number of atoms                             ...      8
Number of basis functions                   ...     44
Number of shells                            ...     28
Maximum angular momentum                    ...      1
Integral batch strategy                     ... SHARK/LIBINT Hybrid
RI-J (if used) integral strategy            ... SPLIT-RIJ (Revised 2003 algorithm where possible)
Printlevel                                  ...      1
Contraction scheme used                     ... SEGMENTED contraction
Coulomb Range Separation                    ... NOT USED
Exchange Range Separation                   ... NOT USED
Finite Nucleus Model                        ... NOT USED
Auxiliary Coulomb fitting basis             ... AVAILABLE
   # of basis functions in Aux-J            ...    240
   # of shells in Aux-J                     ...     80
   Maximum angular momentum in Aux-J        ...      4
Auxiliary J/K fitting basis                 ... NOT available
Auxiliary Correlation fitting basis         ... NOT available
Auxiliary 'external' fitting basis          ... NOT available
Integral threshold                          ...     2.500000e-11
Primitive cut-off                           ...     2.500000e-12
Primitive pair pre-selection threshold      ...     2.500000e-12

Calculating pre-screening integrals         ... done (  0.0 sec) Dimension = 28
Organizing shell pair data                  ... done (  0.1 sec)
Shell pair information
Total number of shell pairs                 ...       406
Shell pairs after pre-screening             ...       402
Total number of primitive shell pairs       ...      2724
Primitive shell pairs kept                  ...      2007
          la=0 lb=0:    206 shell pairs
          la=1 lb=0:    160 shell pairs
          la=1 lb=1:     36 shell pairs

Calculating one electron integrals          ... done (  0.0 sec)
Calculating RI/J V-Matrix + Cholesky decomp.... done (  0.1 sec)
Calculating Nuclear repulsion               ... done (  0.0 sec) ENN=    103.209722543711 Eh

SHARK setup successfully completed in   1.1 seconds

Maximum memory used throughout the entire GTOINT-calculation: 8.3 MB
-------------------------------------------------------------------------------
                                 ORCA SCF
-------------------------------------------------------------------------------

------------
SCF SETTINGS
------------
Hamiltonian:
 Density Functional     Method          .... DFT(GTOs)
 Exchange Functional    Exchange        .... B88
   X-Alpha parameter    XAlpha          ....  0.666667
   Becke's b parameter  XBeta           ....  0.004200
 Correlation Functional Correlation     .... LYP
 LDA part of GGA corr.  LDAOpt          .... VWN-5
 Gradients option       PostSCFGGA      .... off
 Hybrid DFT is turned on
   Fraction HF Exchange ScalHFX         ....  0.200000
   Scaling of DF-GGA-X  ScalDFX         ....  0.720000
   Scaling of DF-GGA-C  ScalDFC         ....  0.810000
   Scaling of DF-LDA-C  ScalLDAC        ....  1.000000
   Perturbative correction              ....  0.000000
   Density functional embedding theory  .... OFF
   NL short-range parameter             ....  4.800000
 RI-approximation to the Coulomb term is turned on
   Number of AuxJ basis functions       .... 240
   RIJ-COSX (HFX calculated with COS-X)).... on


General Settings:
 Integral files         IntName         .... acrolien.49
 Hartree-Fock type      HFTyp           .... RHF
 Total Charge           Charge          ....    0
 Multiplicity           Mult            ....    1
 Number of Electrons    NEL             ....   30
 Basis Dimension        Dim             ....   44
 Nuclear Repulsion      ENuc            ....    103.2097225437 Eh

Convergence Acceleration:
 DIIS                   CNVDIIS         .... on
   Start iteration      DIISMaxIt       ....    12
   Startup error        DIISStart       ....  0.200000
   # of expansion vecs  DIISMaxEq       ....     5
   Bias factor          DIISBfac        ....   1.050
   Max. coefficient     DIISMaxC        ....  10.000
 Trust-Rad. Augm. Hess. CNVTRAH         .... auto
   Auto Start mean grad. ratio tolernc. ....  1.125000
   Auto Start start iteration           ....    20
   Auto Start num. interpolation iter.  ....    10
   Max. Number of Micro iterations      ....    16
   Max. Number of Macro iterations      .... Maxiter - #DIIS iter
   Number of Davidson start vectors     ....     2
   Converg. threshold I  (grad. norm)   ....   1.000e-05
   Converg. threshold II (energy diff.) ....   1.000e-08
   Grad. Scal. Fac. for Micro threshold ....   0.100
   Minimum threshold for Micro iter.    ....   0.010
   NR start threshold (gradient norm)   ....   0.001
   Initial trust radius                 ....   0.400
   Minimum AH scaling param. (alpha)    ....   1.000
   Maximum AH scaling param. (alpha)    .... 1000.000
   Orbital update algorithm             .... Taylor
   White noise on init. David. guess    .... on
   Maximum white noise                  ....   0.010
   Quad. conv. algorithm                .... NR
 SOSCF                  CNVSOSCF        .... on
   Start iteration      SOSCFMaxIt      ....   150
   Startup grad/error   SOSCFStart      ....  0.003300
 Level Shifting         CNVShift        .... on
   Level shift para.    LevelShift      ....    0.2500
   Turn off err/grad.   ShiftErr        ....    0.0010
 Zerner damping         CNVZerner       .... off
 Static damping         CNVDamp         .... on
   Fraction old density DampFac         ....    0.7000
   Max. Damping (<1)    DampMax         ....    0.9800
   Min. Damping (>=0)   DampMin         ....    0.0000
   Turn off err/grad.   DampErr         ....    0.1000
 Fernandez-Rico         CNVRico         .... off

SCF Procedure:
 Maximum # iterations   MaxIter         ....   500
 SCF integral mode      SCFMode         .... Direct
   Integral package                     .... SHARK and LIBINT hybrid scheme
 Reset frequency        DirectResetFreq ....    20
 Integral Threshold     Thresh          ....  2.500e-11 Eh
 Primitive CutOff       TCut            ....  2.500e-12 Eh

Convergence Tolerance:
 Convergence Check Mode ConvCheckMode   .... Total+1el-Energy
 Convergence forced     ConvForced      .... 1
 Energy Change          TolE            ....  1.000e-08 Eh
 1-El. energy change                    ....  1.000e-05 Eh
 Orbital Gradient       TolG            ....  1.000e-05
 Orbital Rotation angle TolX            ....  1.000e-05
 DIIS Error             TolErr          ....  5.000e-07


Diagonalization of the overlap matrix:
Smallest eigenvalue                        ... 5.783e-03
Time for diagonalization                   ...    0.059 sec
Threshold for overlap eigenvalues          ... 1.000e-08
Number of eigenvalues below threshold      ... 0
Time for construction of square roots      ...    0.075 sec
Total time needed                          ...    0.134 sec

Time for model grid setup =    0.177 sec

------------------------------
INITIAL GUESS: MODEL POTENTIAL
------------------------------
Loading Hartree-Fock densities                     ... done
Calculating cut-offs                               ... done
Initializing the effective Hamiltonian             ... done
Setting up the integral package (SHARK)            ... done
Starting the Coulomb interaction                   ... done (   1.1 sec)
Reading the grid                                   ... done
Mapping shells                                     ... done
Starting the XC term evaluation                    ... done (   0.0 sec)
  promolecular density results
     # of electrons  =     29.998336761
     EX              =    -24.695137504
     EC              =     -0.991869631
     EX+EC           =    -25.687007135
Transforming the Hamiltonian                       ... done (   0.4 sec)
Diagonalizing the Hamiltonian                      ... done (   0.0 sec)
Back transforming the eigenvectors                 ... done (   0.0 sec)
Now organizing SCF variables                       ... done
                      ------------------
                      INITIAL GUESS DONE (   2.2 sec)
                      ------------------
-------------------
DFT GRID GENERATION
-------------------

General Integration Accuracy     IntAcc      ... 4.388
Radial Grid Type                 RadialGrid  ... OptM3 with GC (2021)
Angular Grid (max. ang.)         AngularGrid ... 4 (Lebedev-302)
Angular grid pruning method      GridPruning ... 4 (adaptive)
Weight generation scheme         WeightScheme... Becke
Basis function cutoff            BFCut       ... 1.0000e-11
Integration weight cutoff        WCut        ... 1.0000e-14
Angular grids for H and He will be reduced by one unit
Partially contracted basis set               ... off
Rotationally invariant grid construction     ... off

Total number of grid points                  ...    37430
Total number of batches                      ...      589
Average number of points per batch           ...       63
Average number of grid points per atom       ...     4679
Time for grid setup =    0.547 sec

--------------------
COSX GRID GENERATION
--------------------

GRIDX 1
-------
General Integration Accuracy     IntAcc      ... 3.816
Radial Grid Type                 RadialGrid  ... OptM3 with GC (2021)
Angular Grid (max. ang.)         AngularGrid ... 1 (Lebedev-50)
Angular grid pruning method      GridPruning ... 4 (adaptive)
Weight generation scheme         WeightScheme... Becke
Basis function cutoff            BFCut       ... 1.0000e-11
Integration weight cutoff        WCut        ... 1.0000e-14
Angular grids for H and He will be reduced by one unit
Partially contracted basis set               ... on
Rotationally invariant grid construction     ... off

Total number of grid points                  ...     4807
Total number of batches                      ...       79
Average number of points per batch           ...       60
Average number of grid points per atom       ...      601
UseSFitting                                  ... on

GRIDX 2
-------
General Integration Accuracy     IntAcc      ... 4.020
Radial Grid Type                 RadialGrid  ... OptM3 with GC (2021)
Angular Grid (max. ang.)         AngularGrid ... 2 (Lebedev-110)
Angular grid pruning method      GridPruning ... 4 (adaptive)
Weight generation scheme         WeightScheme... Becke
Basis function cutoff            BFCut       ... 1.0000e-11
Integration weight cutoff        WCut        ... 1.0000e-14
Angular grids for H and He will be reduced by one unit
Partially contracted basis set               ... on
Rotationally invariant grid construction     ... off

Total number of grid points                  ...    10567
Total number of batches                      ...      169
Average number of points per batch           ...       62
Average number of grid points per atom       ...     1321
UseSFitting                                  ... on

GRIDX 3
-------
General Integration Accuracy     IntAcc      ... 4.338
Radial Grid Type                 RadialGrid  ... OptM3 with GC (2021)
Angular Grid (max. ang.)         AngularGrid ... 3 (Lebedev-194)
Angular grid pruning method      GridPruning ... 4 (adaptive)
Weight generation scheme         WeightScheme... Becke
Basis function cutoff            BFCut       ... 1.0000e-11
Integration weight cutoff        WCut        ... 1.0000e-14
Angular grids for H and He will be reduced by one unit
Partially contracted basis set               ... on
Rotationally invariant grid construction     ... off

Total number of grid points                  ...    23305
Total number of batches                      ...      368
Average number of points per batch           ...       63
Average number of grid points per atom       ...     2913
UseSFitting                                  ... on

Time for X-Grid setup             =    1.928 sec

--------------
SCF ITERATIONS
--------------
ITER       Energy         Delta-E        Max-DP      RMS-DP      [F,P]     Damp
               ***  Starting incremental Fock matrix formation  ***
  0   -191.5498535658   0.000000000000 0.09418464  0.00708677  0.2404470 0.7000
  1   -191.6185159050  -0.068662339236 0.04824230  0.00418095  0.0783047 0.7000
                               ***Turning on DIIS***
  2   -191.6392094703  -0.020693565231 0.06186677  0.00570101  0.0314180 0.0000
  3   -191.6796571320  -0.040447661770 0.03558171  0.00301993  0.0345476 0.0000
  4   -191.6857253773  -0.006068245280 0.01187136  0.00122330  0.0224582 0.0000
  5   -191.6869806149  -0.001255237609 0.00417999  0.00036327  0.0039922 0.0000
                      *** Initiating the SOSCF procedure ***
                           *** Shutting down DIIS ***
                      *** Re-Reading the Fockian *** 
                      *** Removing any level shift *** 
ITER      Energy       Delta-E        Grad      Rot      Max-DP    RMS-DP
  6   -191.68702574  -0.0000451274  0.000366  0.000366  0.002137  0.000169
               *** Restarting incremental Fock matrix formation ***
  7   -191.68700594   0.0000198044  0.000495  0.001740  0.001783  0.000126
  8   -191.68700089   0.0000050469  0.001000  0.001145  0.001133  0.000080
  9   -191.68700766  -0.0000067699  0.000084  0.000214  0.000249  0.000020
 10   -191.68700751   0.0000001471  0.000172  0.000160  0.000173  0.000013
 11   -191.68700772  -0.0000002061  0.000011  0.000034  0.000058  0.000006
 12   -191.68700772   0.0000000018  0.000016  0.000018  0.000031  0.000003
                  ***Gradient check signals convergence***
              ***Rediagonalizing the Fockian in SOSCF/NRSCF***

               *****************************************************
               *                     SUCCESS                       *
               *           SCF CONVERGED AFTER  13 CYCLES          *
               *****************************************************

Old exchange energy                            =     -4.994293678 Eh
New exchange energy                            =     -4.994294794 Eh
Exchange energy change after final integration =     -0.000001116 Eh
Total energy after final integration           =   -191.687008840 Eh
Final COS-X integration done in                =     0.825 sec

----------------
TOTAL SCF ENERGY
----------------

Total Energy       :         -191.68700884 Eh           -5216.06869 eV

Components:
Nuclear Repulsion  :          103.20972254 Eh            2808.47933 eV
Electronic Energy  :         -294.89673138 Eh           -8024.54802 eV
One Electron Energy:         -463.29347074 Eh          -12606.85626 eV
Two Electron Energy:          168.39673935 Eh            4582.30824 eV
Max COSX asymmetry :            0.00000227 Eh               0.00006 eV

Virial components:
Potential Energy   :         -382.19347915 Eh          -10400.01329 eV
Kinetic Energy     :          190.50647031 Eh            5183.94460 eV
Virial Ratio       :            2.00619684


DFT components:
N(Alpha)           :       14.999998532522 electrons
N(Beta)            :       14.999998532522 electrons
N(Total)           :       29.999997065044 electrons
E(X)               :      -19.896476881164 Eh       
E(C)               :       -1.177702509293 Eh       
E(XC)              :      -21.074179390457 Eh       
DFET-embed. en.    :        0.000000000000 Eh       

---------------
SCF CONVERGENCE
---------------

  Last Energy change         ...   -6.4866e-09  Tolerance :   1.0000e-08
  Last MAX-Density change    ...    1.7764e-15  Tolerance :   1.0000e-07
  Last RMS-Density change    ...    8.6587e-17  Tolerance :   5.0000e-09
  Last Orbital Gradient      ...    2.1329e-07  Tolerance :   1.0000e-05
  Last Orbital Rotation      ...    9.8864e-07  Tolerance :   1.0000e-05

             **** THE GBW FILE WAS UPDATED (acrolien.49.gbw) ****
             **** DENSITY acrolien.49.scfp WAS UPDATED ****
             **** ENERGY FILE WAS UPDATED (acrolien.49.en.tmp) ****
             **** THE GBW FILE WAS UPDATED (acrolien.49.gbw) ****
             **** DENSITY acrolien.49.scfp WAS UPDATED ****
----------------
ORBITAL ENERGIES
----------------

  NO   OCC          E(Eh)            E(eV) 
   0   2.0000     -19.170561      -521.6575 
   1   2.0000     -10.305602      -280.4297 
   2   2.0000     -10.220308      -278.1087 
   3   2.0000     -10.203467      -277.6504 
   4   2.0000      -1.094063       -29.7710 
   5   2.0000      -0.799011       -21.7422 
   6   2.0000      -0.636052       -17.3079 
   7   2.0000      -0.543349       -14.7853 
   8   2.0000      -0.497633       -13.5413 
   9   2.0000      -0.452704       -12.3187 
  10   2.0000      -0.442334       -12.0365 
  11   2.0000      -0.396829       -10.7983 
  12   2.0000      -0.378370       -10.2960 
  13   2.0000      -0.286993        -7.8095 
  14   2.0000      -0.259312        -7.0562 
  15   0.0000      -0.044189        -1.2024 
  16   0.0000      -0.002683        -0.0730 
  17   0.0000       0.067484         1.8363 
  18   0.0000       0.095135         2.5887 
  19   0.0000       0.128084         3.4853 
  20   0.0000       0.169134         4.6024 
  21   0.0000       0.284741         7.7482 
  22   0.0000       0.313569         8.5326 
  23   0.0000       0.323941         8.8149 
  24   0.0000       0.512601        13.9486 
  25   0.0000       0.532555        14.4916 
  26   0.0000       0.563083        15.3223 
  27   0.0000       0.613353        16.6902 
  28   0.0000       0.637722        17.3533 
  29   0.0000       0.673385        18.3237 
  30   0.0000       0.701566        19.0906 
  31   0.0000       0.733721        19.9656 
  32   0.0000       0.758642        20.6437 
  33   0.0000       0.803870        21.8744 
  34   0.0000       0.814313        22.1586 
  35   0.0000       0.864483        23.5238 
  36   0.0000       0.942231        25.6394 
  37   0.0000       0.975905        26.5557 
  38   0.0000       0.998989        27.1839 
  39   0.0000       1.014969        27.6187 
  40   0.0000       1.096161        29.8281 
  41   0.0000       1.142363        31.0853 
  42   0.0000       1.291492        35.1433 
  43   0.0000       1.707893        46.4741 

                    ********************************
                    * MULLIKEN POPULATION ANALYSIS *
                    ********************************

-----------------------
MULLIKEN ATOMIC CHARGES
-----------------------
   0 C :    0.181201
   1 O :   -0.333559
   2 C :   -0.107732
   3 C :   -0.268083
   4 H :    0.068274
   5 H :    0.156838
   6 H :    0.144399
   7 H :    0.158661
Sum of atomic charges:   -0.0000000

--------------------------------
MULLIKEN REDUCED ORBITAL CHARGES
--------------------------------
  0 C s       :     3.238795  s :     3.238795
      pz      :     0.849813  p :     2.580003
      px      :     0.955230
      py      :     0.774960
  1 O s       :     3.944311  s :     3.944311
      pz      :     1.420251  p :     4.389248
      px      :     1.647331
      py      :     1.321667
  2 C s       :     3.189580  s :     3.189580
      pz      :     1.014529  p :     2.918152
      px      :     0.901916
      py      :     1.001707
  3 C s       :     3.317962  s :     3.317962
      pz      :     0.976003  p :     2.950121
      px      :     0.971623
      py      :     1.002495
  4 H s       :     0.931726  s :     0.931726
  5 H s       :     0.843162  s :     0.843162
  6 H s       :     0.855601  s :     0.855601
  7 H s       :     0.841339  s :     0.841339


                     *******************************
                     * LOEWDIN POPULATION ANALYSIS *
                     *******************************

----------------------
LOEWDIN ATOMIC CHARGES
----------------------
   0 C :    0.128409
   1 O :   -0.196866
   2 C :   -0.182929
   3 C :   -0.186867
   4 H :    0.047649
   5 H :    0.126559
   6 H :    0.127827
   7 H :    0.136218

-------------------------------
LOEWDIN REDUCED ORBITAL CHARGES
-------------------------------
  0 C s       :     3.021940  s :     3.021940
      pz      :     0.911718  p :     2.849650
      px      :     0.991533
      py      :     0.946400
  1 O s       :     3.632703  s :     3.632703
      pz      :     1.464570  p :     4.564162
      px      :     1.672171
      py      :     1.427422
  2 C s       :     2.973787  s :     2.973787
      pz      :     1.027649  p :     3.209142
      px      :     1.083303
      py      :     1.098190
  3 C s       :     3.034027  s :     3.034027
      pz      :     0.989408  p :     3.152840
      px      :     1.090930
      py      :     1.072502
  4 H s       :     0.952351  s :     0.952351
  5 H s       :     0.873441  s :     0.873441
  6 H s       :     0.872173  s :     0.872173
  7 H s       :     0.863782  s :     0.863782


                      *****************************
                      * MAYER POPULATION ANALYSIS *
                      *****************************

  NA   - Mulliken gross atomic population
  ZA   - Total nuclear charge
  QA   - Mulliken gross atomic charge
  VA   - Mayer's total valence
  BVA  - Mayer's bonded valence
  FA   - Mayer's free valence

  ATOM       NA         ZA         QA         VA         BVA        FA
  0 C      5.8188     6.0000     0.1812     3.6732     3.6732    -0.0000
  1 O      8.3336     8.0000    -0.3336     2.0416     2.0416    -0.0000
  2 C      6.1077     6.0000    -0.1077     3.7248     3.7248     0.0000
  3 C      6.2681     6.0000    -0.2681     3.8579     3.8579     0.0000
  4 H      0.9317     1.0000     0.0683     0.9529     0.9529     0.0000
  5 H      0.8432     1.0000     0.1568     0.9374     0.9374     0.0000
  6 H      0.8556     1.0000     0.1444     0.9556     0.9556    -0.0000
  7 H      0.8413     1.0000     0.1587     0.9493     0.9493    -0.0000

  Mayer bond orders larger than 0.100000
B(  0-C ,  1-O ) :   1.9047 B(  0-C ,  2-C ) :   0.9115 B(  0-C ,  4-H ) :   0.8258 
B(  2-C ,  3-C ) :   1.9153 B(  2-C ,  5-H ) :   0.9295 B(  3-C ,  6-H ) :   0.9452 
B(  3-C ,  7-H ) :   0.9384 

-------
TIMINGS
-------

Total SCF time: 0 days 0 hours 0 min 49 sec 

Total time                  ....      49.254 sec
Sum of individual times     ....      40.076 sec  ( 81.4%)

Fock matrix formation       ....      34.861 sec  ( 70.8%)
  Split-RI-J                ....       0.616 sec  (  1.8% of F)
  Chain of spheres X        ....       4.627 sec  ( 13.3% of F)
  XC integration            ....      14.069 sec  ( 40.4% of F)
    Basis function eval.    ....       1.022 sec  (  7.3% of XC)
    Density eval.           ....       0.375 sec  (  2.7% of XC)
    XC-Functional eval.     ....       0.598 sec  (  4.2% of XC)
    XC-Potential eval.      ....       0.264 sec  (  1.9% of XC)
Diagonalization             ....       0.003 sec  (  0.0%)
Density matrix formation    ....       0.000 sec  (  0.0%)
Population analysis         ....       0.002 sec  (  0.0%)
Initial guess               ....       1.983 sec  (  4.0%)
Orbital Transformation      ....       0.000 sec  (  0.0%)
Orbital Orthonormalization  ....       0.000 sec  (  0.0%)
DIIS solution               ....       0.002 sec  (  0.0%)
SOSCF solution              ....       0.572 sec  (  1.2%)
Grid generation             ....       2.652 sec  (  5.4%)

Maximum memory used throughout the entire SCF-calculation: 46.8 MB
------------------------------------------------------------------------------
                        ORCA TD-DFT/TDA CALCULATION
------------------------------------------------------------------------------

Input orbitals are from        ... acrolien.49.gbw
CI-vector output               ... acrolien.49.cis
Tamm-Dancoff approximation     ... operative
CIS-Integral strategy          ... AO-integrals
Integral handling              ... AO integral Direct
Max. core memory used          ... 512 MB
Reference state                ... RHF
Generation of triplets         ... off
Follow IRoot                   ... off
Number of operators            ... 1
Orbital ranges used for CIS calculation:
 Operator 0:  Orbitals   4... 14  to  15... 43
XAS localization array:
 Operator 0:  Orbitals  -1... -1

-------------------
XC-INTEGRATION GRID
-------------------

General Integration Accuracy     IntAcc      ... 3.467
Radial Grid Type                 RadialGrid  ... OptM3 with GC (2021)
Angular Grid (max. ang.)         AngularGrid ... 1 (Lebedev-50)
Angular grid pruning method      GridPruning ... 4 (adaptive)
Weight generation scheme         WeightScheme... Becke
Basis function cutoff            BFCut       ... 1.0000e-11
Integration weight cutoff        WCut        ... 1.0000e-14
Angular grids for H and He will be reduced by one unit
Partially contracted basis set               ... off
Rotationally invariant grid construction     ... off

Total number of grid points                  ...     5501
Total number of batches                      ...       89
Average number of points per batch           ...       61
Average number of grid points per atom       ...      688

---------------------
COSX-INTEGRATION GRID
---------------------

General Integration Accuracy     IntAcc      ... 3.067
Radial Grid Type                 RadialGrid  ... OptM3 with GC (2021)
Angular Grid (max. ang.)         AngularGrid ... 1 (Lebedev-50)
Angular grid pruning method      GridPruning ... 4 (adaptive)
Weight generation scheme         WeightScheme... Becke
Basis function cutoff            BFCut       ... 1.0000e-11
Integration weight cutoff        WCut        ... 1.0000e-14
Angular grids for H and He will be reduced by one unit
Partially contracted basis set               ... on
Rotationally invariant grid construction     ... off

Total number of grid points                  ...     2514
Total number of batches                      ...       45
Average number of points per batch           ...       55
Average number of grid points per atom       ...      314

---------------
TD-DFT XC SETUP
---------------

DFT calculation                         ... on
Name of the grid file                   ... acrolien.49.grid_cis.tmp
Exchange functional (TD-DFT)            ... B88
   X-Alpha parameter    XAlpha (TD-DFT) ...  0.666667
   Becke's b parameter  XBeta (TD-DFT)  ...  0.004200
Correlation functional (TD-DFT)         ... LYP
 LDA part of GGA corr.  LDAOpt (TD-DFT) ... VWN-5
Hybrid DFT                              ... on
   Exchange mixing (TD-DFT)             ...  0.200
   GGA exch. scaling (TD-DFT)           ...  0.720
   GGA corr. scaling (TD-DFT)           ...  0.810

Building densities             ... done
Calculating rho(r) on the grid ... done
Building xc-kernel on the grid ... done
                    *** TD-DFT CALCULATION INITIALIZED ***

------------------------
DAVIDSON-DIAGONALIZATION
------------------------

Dimension of the eigenvalue problem            ...    319
Number of roots to be determined               ...      1
Maximum size of the expansion space            ...     10
Maximum number of iterations                   ...    100
Convergence tolerance for the residual         ...    2.500e-07
Convergence tolerance for the energies         ...    2.500e-07
Orthogonality tolerance                        ...    1.000e-14
Level Shift                                    ...    0.000e+00
Constructing the preconditioner                ... o.k.
Building the initial guess                     ... o.k.
Number of trial vectors determined             ...     10


                       ****Iteration    0****

   Memory handling for direct AO based CIS:
   Memory per vector needed      ...     1 MB
   Memory needed                 ...     0 MB
   Memory available              ...   512 MB
   Number of vectors per batch   ...   512
   Number of batches             ...     1
   Time for densities:            0.000
   Time for RI-J (Direct):        0.044
   Time for K (COSX):             0.117
   Time for XC-Integration:       0.040
   Time for Sigma-Completion:     0.000
   Size of expansion space: 3
   Lowest Energy          :     0.150680832593
   Maximum Energy change  :     0.150680832593 (vector 0)
   Maximum residual norm  :     0.000925466876

                       ****Iteration    1****
   Time for densities:            0.000
   Time for RI-J (Direct):        0.034
   Time for K (COSX):             0.762
   Time for XC-Integration:       0.023
   Time for Sigma-Completion:     0.000
   Size of expansion space: 4
   Lowest Energy          :     0.148885764473
   Maximum Energy change  :     0.001795068120 (vector 0)
   Maximum residual norm  :     0.000108698265

                       ****Iteration    2****
   Time for densities:            0.000
   Time for RI-J (Direct):        0.034
   Time for K (COSX):             0.461
   Time for XC-Integration:       0.023
   Time for Sigma-Completion:     0.000
   Size of expansion space: 5
   Lowest Energy          :     0.148733030437
   Maximum Energy change  :     0.000152734036 (vector 0)
   Maximum residual norm  :     0.000006680457

                       ****Iteration    3****
   Time for densities:            0.000
   Time for RI-J (Direct):        0.034
   Time for K (COSX):             0.107
   Time for XC-Integration:       0.023
   Time for Sigma-Completion:     0.000
   Size of expansion space: 6
   Lowest Energy          :     0.148725183969
   Maximum Energy change  :     0.000007846468 (vector 0)
   Maximum residual norm  :     0.000001716526

                       ****Iteration    4****
   Time for densities:            0.000
   Time for RI-J (Direct):        0.034
   Time for K (COSX):             0.328
   Time for XC-Integration:       0.023
   Time for Sigma-Completion:     0.000
   Size of expansion space: 7
   Lowest Energy          :     0.148723335916
   Maximum Energy change  :     0.000001848053 (vector 0)
   Maximum residual norm  :     0.000000083038

      *** CONVERGENCE OF RESIDUAL NORM REACHED ***

Storing the converged CI vectors               ... acrolien.49.cis1

                 *** DAVIDSON DONE ***

Total time for solving the CIS problem:     3.118sec

------------------------------------
TD-DFT/TDA EXCITED STATES (SINGLETS)
------------------------------------

the weight of the individual excitations are printed if larger than 1.0e-02

STATE  1:  E=   0.148723 au      4.047 eV    32641.0 cm**-1 <S**2> =   0.000000
    14a ->  15a  :     0.970110 (c=  0.98494148)
    14a ->  16a  :     0.018197 (c=  0.13489469)


-----------------------------
TD-DFT/TDA-EXCITATION SPECTRA
-----------------------------

Center of mass = ( -0.6275, -0.5393, -0.3948)
Calculating the Dipole integrals                  ... done
Transforming integrals                            ... done
Calculating the Linear Momentum integrals         ... done
Transforming integrals                            ... done
Calculating angular momentum integrals            ... done
Transforming integrals                            ... done

-----------------------------------------------------------------------------
         ABSORPTION SPECTRUM VIA TRANSITION ELECTRIC DIPOLE MOMENTS
-----------------------------------------------------------------------------
State   Energy    Wavelength  fosc         T2        TX        TY        TZ  
        (cm-1)      (nm)                 (au**2)    (au)      (au)      (au) 
-----------------------------------------------------------------------------
   1   32641.0    306.4   0.001054160   0.01063  -0.07781  -0.01684   0.06553

-----------------------------------------------------------------------------
         ABSORPTION SPECTRUM VIA TRANSITION VELOCITY DIPOLE MOMENTS
-----------------------------------------------------------------------------
State   Energy    Wavelength   fosc        P2         PX        PY        PZ  
        (cm-1)      (nm)                 (au**2)     (au)      (au)      (au) 
-----------------------------------------------------------------------------
   1   32641.0    306.4   0.000734914   0.00016   0.01145  -0.00559  -0.00122

-------------------------------------------------------------------
                             CD SPECTRUM
-------------------------------------------------------------------
State  Energy     Wavelength     R         MX        MY        MZ   
       (cm-1)       (nm)     (1e40*cgs)   (au)      (au)      (au)  
-------------------------------------------------------------------
   1   32641.0    306.4      2.53256   0.08199   0.41056   0.28481

-------------------------------------------------------------------
         CD SPECTRUM VIA TRANSITION VELOCITY DIPOLE MOMENTS        
-------------------------------------------------------------------
State  Energy     Wavelength     R         MX        MY        MZ   
       (cm-1)       (nm)     (1e40*cgs)   (au)      (au)      (au)  
-------------------------------------------------------------------
   1   32641.0    306.4     -5.40389   0.08199   0.41056   0.28481

Total run time:        5.772 sec

           *** ORCA-CIS/TD-DFT FINISHED WITHOUT ERROR ***

Maximum memory used throughout the entire CIS-calculation: 42.9 MB

-----------------------
CIS/TD-DFT TOTAL ENERGY
-----------------------

    E(SCF)  =   -191.687008840 Eh
    DE(CIS) =      0.148723336 Eh (Root  1)
    ----------------------------- ---------
    E(tot)  =   -191.538285505 Eh


-------------------------   --------------------
FINAL SINGLE POINT ENERGY      -191.538285504550
-------------------------   --------------------


                            ***************************************
                            *     ORCA property calculations      *
                            ***************************************

                                    ---------------------
                                    Active property flags
                                    ---------------------
   (+) Dipole Moment


------------------------------------------------------------------------------
                       ORCA ELECTRIC PROPERTIES CALCULATION
------------------------------------------------------------------------------

Dipole Moment Calculation                       ... on
Quadrupole Moment Calculation                   ... off
Polarizability Calculation                      ... off
GBWName                                         ... acrolien.49.gbw
Electron density                                ... acrolien.49.scfp
The origin for moment calculation is the CENTER OF MASS  = (-0.627502, -0.539255 -0.394790)

-------------
DIPOLE MOMENT
-------------
                                X             Y             Z
Electronic contribution:     -1.90574      -1.15559      -1.22844
Nuclear contribution   :      2.36429       1.97289       1.53905
                        -----------------------------------------
Total Dipole Moment    :      0.45855       0.81729       0.31061
                        -----------------------------------------
Magnitude (a.u.)       :      0.98727
Magnitude (Debye)      :      2.50945



--------------------
Rotational spectrum 
--------------------
 
Rotational constants in cm-1:     0.790292     0.189805     0.165380 
Rotational constants in MHz : 23692.367337  5690.208978  4957.967350 

 Dipole components along the rotational axes: 
x,y,z [a.u.] :    -0.835161    -0.517208    -0.098558 
x,y,z [Debye]:    -2.122809    -1.314638    -0.250514 

 

Timings for individual modules:

Sum of individual times         ...       58.951 sec (=   0.983 min)
GTO integral calculation        ...        1.449 sec (=   0.024 min)   2.5 %
SCF iterations                  ...       50.840 sec (=   0.847 min)  86.2 %
CIS module                      ...        6.662 sec (=   0.111 min)  11.3 %
                             ****ORCA TERMINATED NORMALLY****
TOTAL RUN TIME: 0 days 0 hours 1 minutes 1 seconds 126 msec
