
                                 *****************
                                 * O   R   C   A *
                                 *****************

                                            #,                                       
                                            ###                                      
                                            ####                                     
                                            #####                                    
                                            ######                                   
                                           ########,                                 
                                     ,,################,,,,,                         
                               ,,#################################,,                 
                          ,,##########################################,,             
                       ,#########################################, ''#####,          
                    ,#############################################,,   '####,        
                  ,##################################################,,,,####,       
                ,###########''''           ''''###############################       
              ,#####''   ,,,,##########,,,,          '''####'''          '####       
            ,##' ,,,,###########################,,,                        '##       
           ' ,,###''''                  '''############,,,                           
         ,,##''                                '''############,,,,        ,,,,,,###''
      ,#''                                            '''#######################'''  
     '                                                          ''''####''''         
             ,#######,   #######,   ,#######,      ##                                
            ,#'     '#,  ##    ##  ,#'     '#,    #''#        ######   ,####,        
            ##       ##  ##   ,#'  ##            #'  '#       #        #'  '#        
            ##       ##  #######   ##           ,######,      #####,   #    #        
            '#,     ,#'  ##    ##  '#,     ,#' ,#      #,         ##   #,  ,#        
             '#######'   ##     ##  '#######'  #'      '#     #####' # '####'        



                  #######################################################
                  #                        -***-                        #
                  #          Department of theory and spectroscopy      #
                  #    Directorship and core code : Frank Neese         #
                  #        Max Planck Institute fuer Kohlenforschung    #
                  #                Kaiser Wilhelm Platz 1               #
                  #                 D-45470 Muelheim/Ruhr               #
                  #                      Germany                        #
                  #                                                     #
                  #                  All rights reserved                #
                  #                        -***-                        #
                  #######################################################


                         Program Version 5.0.3 -  RELEASE  -


 With contributions from (in alphabetic order):
   Daniel Aravena         : Magnetic Suceptibility
   Michael Atanasov       : Ab Initio Ligand Field Theory (pilot matlab implementation)
   Alexander A. Auer      : GIAO ZORA, VPT2 properties, NMR spectrum
   Ute Becker             : Parallelization
   Giovanni Bistoni       : ED, misc. LED, open-shell LED, HFLD
   Martin Brehm           : Molecular dynamics
   Dmytro Bykov           : SCF Hessian
   Vijay G. Chilkuri      : MRCI spin determinant printing, contributions to CSF-ICE
   Dipayan Datta          : RHF DLPNO-CCSD density
   Achintya Kumar Dutta   : EOM-CC, STEOM-CC
   Dmitry Ganyushin       : Spin-Orbit,Spin-Spin,Magnetic field MRCI
   Miquel Garcia          : C-PCM and meta-GGA Hessian, CC/C-PCM, Gaussian charge scheme
   Yang Guo               : DLPNO-NEVPT2, F12-NEVPT2, CIM, IAO-localization
   Andreas Hansen         : Spin unrestricted coupled pair/coupled cluster methods
   Benjamin Helmich-Paris : MC-RPA, TRAH-SCF, COSX integrals
   Lee Huntington         : MR-EOM, pCC
   Robert Izsak           : Overlap fitted RIJCOSX, COSX-SCS-MP3, EOM
   Marcus Kettner         : VPT2
   Christian Kollmar      : KDIIS, OOCD, Brueckner-CCSD(T), CCSD density, CASPT2, CASPT2-K
   Simone Kossmann        : Meta GGA functionals, TD-DFT gradient, OOMP2, MP2 Hessian
   Martin Krupicka        : Initial AUTO-CI
   Lucas Lang             : DCDCAS
   Marvin Lechner         : AUTO-CI (C++ implementation), FIC-MRCC
   Dagmar Lenk            : GEPOL surface, SMD
   Dimitrios Liakos       : Extrapolation schemes; Compound Job, initial MDCI parallelization
   Dimitrios Manganas     : Further ROCIS development; embedding schemes
   Dimitrios Pantazis     : SARC Basis sets
   Anastasios Papadopoulos: AUTO-CI, single reference methods and gradients
   Taras Petrenko         : DFT Hessian,TD-DFT gradient, ASA, ECA, R-Raman, ABS, FL, XAS/XES, NRVS
   Peter Pinski           : DLPNO-MP2, DLPNO-MP2 Gradient
   Christoph Reimann      : Effective Core Potentials
   Marius Retegan         : Local ZFS, SOC
   Christoph Riplinger    : Optimizer, TS searches, QM/MM, DLPNO-CCSD(T), (RO)-DLPNO pert. Triples
   Tobias Risthaus        : Range-separated hybrids, TD-DFT gradient, RPA, STAB
   Michael Roemelt        : Original ROCIS implementation
   Masaaki Saitow         : Open-shell DLPNO-CCSD energy and density
   Barbara Sandhoefer     : DKH picture change effects
   Avijit Sen             : IP-ROCIS
   Kantharuban Sivalingam : CASSCF convergence, NEVPT2, FIC-MRCI
   Bernardo de Souza      : ESD, SOC TD-DFT
   Georgi Stoychev        : AutoAux, RI-MP2 NMR, DLPNO-MP2 response
   Willem Van den Heuvel  : Paramagnetic NMR
   Boris Wezisla          : Elementary symmetry handling
   Frank Wennmohs         : Technical directorship


 We gratefully acknowledge several colleagues who have allowed us to
 interface, adapt or use parts of their codes:
   Stefan Grimme, W. Hujo, H. Kruse, P. Pracht,  : VdW corrections, initial TS optimization,
                  C. Bannwarth, S. Ehlert          DFT functionals, gCP, sTDA/sTD-DF
   Ed Valeev, F. Pavosevic, A. Kumar             : LibInt (2-el integral package), F12 methods
   Garnet Chan, S. Sharma, J. Yang, R. Olivares  : DMRG
   Ulf Ekstrom                                   : XCFun DFT Library
   Mihaly Kallay                                 : mrcc  (arbitrary order and MRCC methods)
   Jiri Pittner, Ondrej Demel                    : Mk-CCSD
   Frank Weinhold                                : gennbo (NPA and NBO analysis)
   Christopher J. Cramer and Donald G. Truhlar   : smd solvation model
   Lars Goerigk                                  : TD-DFT with DH, B97 family of functionals
   V. Asgeirsson, H. Jonsson                     : NEB implementation
   FAccTs GmbH                                   : IRC, NEB, NEB-TS, DLPNO-Multilevel, CI-OPT
                                                   MM, QMMM, 2- and 3-layer-ONIOM, Crystal-QMMM,
                                                   LR-CPCM, SF, NACMEs, symmetry and pop. for TD-DFT,
                                                   nearIR, NL-DFT gradient (VV10), updates on ESD,
                                                   ML-optimized integration grids
   S Lehtola, MJT Oliveira, MAL Marques          : LibXC Library
   Liviu Ungur et al                             : ANISO software


 Your calculation uses the libint2 library for the computation of 2-el integrals
 For citations please refer to: http://libint.valeyev.net

 Your ORCA version has been built with support for libXC version: 5.1.0
 For citations please refer to: https://tddft.org/programs/libxc/

 This ORCA versions uses:
   CBLAS   interface :  Fast vector & matrix operations
   LAPACKE interface :  Fast linear algebra routines
   SCALAPACK package :  Parallel linear algebra routines
   Shared memory     :  Shared parallel matrices
   BLAS/LAPACK       :  OpenBLAS 0.3.15  USE64BITINT DYNAMIC_ARCH NO_AFFINITY Haswell SINGLE_THREADED
        Core in use  :  Haswell
   Copyright (c) 2011-2014, The OpenBLAS Project


================================================================================

----- Orbital basis set information -----
Your calculation utilizes the basis: 6-31G
   H-He, Li-Ne : W. J. Hehre, R. Ditchfield and J.A. Pople, J. Chem. Phys. 56, 2257 (1972).
                 Note: He and Ne are unpublished basis sets taken from the Gaussian program.
                 Note: Li and B from J. D. Dill and J. A. Pople, J. Chem. Phys. 62, 2921 (1975).
   Na - Ar     : M. M. Francl, W. J. Pietro, W. J. Hehre, J. S. Binkley, M. S. Gordon, 
                 D. J. DeFrees and J. A. Pople, J. Chem. Phys. 77, 3654 (1982).
   K - Zn      : V. A. Rassolov, J. A. Pople, M. A. Ratner, and T. L. Windus, J. Chem. Phys. 109, 1223 (1998).

----- AuxJ basis set information -----
Your calculation utilizes the auxiliary basis: def2/J
   F. Weigend, Phys. Chem. Chem. Phys. 8, 1057 (2006).

================================================================================
                                        WARNINGS
                       Please study these warnings very carefully!
================================================================================

INFO   : Checking CIS options ...

INFO   : the flag for use of the SHARK integral package has been found!

================================================================================
                                       INPUT FILE
================================================================================
NAME = acrolien.611.com
|  1> ! B3LYP 6-31G
|  2> !TightSCF
|  3> %scf
|  4>  ConvForced true
|  5>  convergence tight
|  6>  MaxIter 500
|  7> end
|  8>  
|  9> %tddft 
| 10>  nroots 1
| 11> end
| 12> 
| 13> # 	264
| 14> * xyz 0 1
| 15> 		C   -1.186180  -0.341245   0.029623
| 16> 		O   -1.359612  -1.479646  -0.369416
| 17> 		C    0.006206   0.408312  -0.157714
| 18> 		C    1.260990   0.018233   0.067688
| 19> 		H   -2.029253   0.158970   0.538027
| 20> 		H   -0.247473   1.525167  -0.296831
| 21> 		H    1.532642  -0.979261   0.374050
| 22> 		H    2.075940   0.660709  -0.158684
| 23> *
| 24> 
| 25>                          ****END OF INPUT****
================================================================================

                       ****************************
                       * Single Point Calculation *
                       ****************************

---------------------------------
CARTESIAN COORDINATES (ANGSTROEM)
---------------------------------
  C     -1.186180   -0.341245    0.029623
  O     -1.359612   -1.479646   -0.369416
  C      0.006206    0.408312   -0.157714
  C      1.260990    0.018233    0.067688
  H     -2.029253    0.158970    0.538027
  H     -0.247473    1.525167   -0.296831
  H      1.532642   -0.979261    0.374050
  H      2.075940    0.660709   -0.158684

----------------------------
CARTESIAN COORDINATES (A.U.)
----------------------------
  NO LB      ZA    FRAG     MASS         X           Y           Z
   0 C     6.0000    0    12.011   -2.241555   -0.644860    0.055979
   1 O     8.0000    0    15.999   -2.569294   -2.796126   -0.698095
   2 C     6.0000    0    12.011    0.011728    0.771598   -0.298036
   3 C     6.0000    0    12.011    2.382926    0.034455    0.127912
   4 H     1.0000    0     1.008   -3.834732    0.300410    1.016724
   5 H     1.0000    0     1.008   -0.467656    2.882148   -0.560929
   6 H     1.0000    0     1.008    2.896274   -1.850535    0.706852
   7 H     1.0000    0     1.008    3.922958    1.248559   -0.299869

--------------------------------
INTERNAL COORDINATES (ANGSTROEM)
--------------------------------
 C      0   0   0     0.000000000000     0.00000000     0.00000000
 O      1   0   0     1.218715561132     0.00000000     0.00000000
 C      1   2   0     1.420814984723   124.68360471     0.00000000
 C      3   1   2     1.333210626458   127.82212098   311.80079418
 H      1   2   3     1.104292423577   117.72450071   177.43877138
 H      3   1   2     1.153720791940   110.00287906   145.76588301
 H      4   3   1     1.078260990755   123.76731656     4.18917117
 H      4   3   1     1.062150269717   120.60502204   176.95622945

---------------------------
INTERNAL COORDINATES (A.U.)
---------------------------
 C      0   0   0     0.000000000000     0.00000000     0.00000000
 O      1   0   0     2.303038645688     0.00000000     0.00000000
 C      1   2   0     2.684951208098   124.68360471     0.00000000
 C      3   1   2     2.519402962840   127.82212098   311.80079418
 H      1   2   3     2.086810252325   117.72450071   177.43877138
 H      3   1   2     2.180216331778   110.00287906   145.76588301
 H      4   3   1     2.037617973418   123.76731656     4.18917117
 H      4   3   1     2.007173122836   120.60502204   176.95622945

---------------------
BASIS SET INFORMATION
---------------------
There are 3 groups of distinct atoms

 Group   1 Type C   : 10s4p contracted to 3s2p pattern {631/31}
 Group   2 Type O   : 10s4p contracted to 3s2p pattern {631/31}
 Group   3 Type H   : 4s contracted to 2s pattern {31}

Atom   0C    basis set group =>   1
Atom   1O    basis set group =>   2
Atom   2C    basis set group =>   1
Atom   3C    basis set group =>   1
Atom   4H    basis set group =>   3
Atom   5H    basis set group =>   3
Atom   6H    basis set group =>   3
Atom   7H    basis set group =>   3
---------------------------------
AUXILIARY/J BASIS SET INFORMATION
---------------------------------
There are 3 groups of distinct atoms

 Group   1 Type C   : 12s5p4d2f1g contracted to 6s4p3d1f1g pattern {711111/2111/211/2/1}
 Group   2 Type O   : 12s5p4d2f1g contracted to 6s4p3d1f1g pattern {711111/2111/211/2/1}
 Group   3 Type H   : 5s2p1d contracted to 3s1p1d pattern {311/2/1}

Atom   0C    basis set group =>   1
Atom   1O    basis set group =>   2
Atom   2C    basis set group =>   1
Atom   3C    basis set group =>   1
Atom   4H    basis set group =>   3
Atom   5H    basis set group =>   3
Atom   6H    basis set group =>   3
Atom   7H    basis set group =>   3
------------------------------------------------------------------------------
                           ORCA GTO INTEGRAL CALCULATION
                           -- RI-GTO INTEGRALS CHOSEN --
------------------------------------------------------------------------------
------------------------------------------------------------------------------
                   ___                                                        
                  /   \      - P O W E R E D   B Y -                         
                 /     \                                                     
                 |  |  |   _    _      __       _____    __    __             
                 |  |  |  | |  | |    /  \     |  _  \  |  |  /  |          
                  \  \/   | |  | |   /    \    | | | |  |  | /  /          
                 / \  \   | |__| |  /  /\  \   | |_| |  |  |/  /          
                |  |  |   |  __  | /  /__\  \  |    /   |      \           
                |  |  |   | |  | | |   __   |  |    \   |  |\   \          
                \     /   | |  | | |  |  |  |  | |\  \  |  | \   \       
                 \___/    |_|  |_| |__|  |__|  |_| \__\ |__|  \__/        
                                                                              
                      - O R C A' S   B I G   F R I E N D -                    
                                      &                                       
                       - I N T E G R A L  F E E D E R -                       
                                                                              
 v1 FN, 2020, v2 2021                                                         
------------------------------------------------------------------------------


Reading SHARK input file acrolien.611.SHARKINP.tmp ... ok
----------------------
SHARK INTEGRAL PACKAGE
----------------------

Number of atoms                             ...      8
Number of basis functions                   ...     44
Number of shells                            ...     28
Maximum angular momentum                    ...      1
Integral batch strategy                     ... SHARK/LIBINT Hybrid
RI-J (if used) integral strategy            ... SPLIT-RIJ (Revised 2003 algorithm where possible)
Printlevel                                  ...      1
Contraction scheme used                     ... SEGMENTED contraction
Coulomb Range Separation                    ... NOT USED
Exchange Range Separation                   ... NOT USED
Finite Nucleus Model                        ... NOT USED
Auxiliary Coulomb fitting basis             ... AVAILABLE
   # of basis functions in Aux-J            ...    240
   # of shells in Aux-J                     ...     80
   Maximum angular momentum in Aux-J        ...      4
Auxiliary J/K fitting basis                 ... NOT available
Auxiliary Correlation fitting basis         ... NOT available
Auxiliary 'external' fitting basis          ... NOT available
Integral threshold                          ...     2.500000e-11
Primitive cut-off                           ...     2.500000e-12
Primitive pair pre-selection threshold      ...     2.500000e-12

Calculating pre-screening integrals         ... done (  0.0 sec) Dimension = 28
Organizing shell pair data                  ... done (  0.1 sec)
Shell pair information
Total number of shell pairs                 ...       406
Shell pairs after pre-screening             ...       402
Total number of primitive shell pairs       ...      2724
Primitive shell pairs kept                  ...      2009
          la=0 lb=0:    206 shell pairs
          la=1 lb=0:    160 shell pairs
          la=1 lb=1:     36 shell pairs

Calculating one electron integrals          ... done (  0.0 sec)
Calculating RI/J V-Matrix + Cholesky decomp.... done (  0.1 sec)
Calculating Nuclear repulsion               ... done (  0.0 sec) ENN=    104.500243056327 Eh

SHARK setup successfully completed in   1.2 seconds

Maximum memory used throughout the entire GTOINT-calculation: 8.3 MB
-------------------------------------------------------------------------------
                                 ORCA SCF
-------------------------------------------------------------------------------

------------
SCF SETTINGS
------------
Hamiltonian:
 Density Functional     Method          .... DFT(GTOs)
 Exchange Functional    Exchange        .... B88
   X-Alpha parameter    XAlpha          ....  0.666667
   Becke's b parameter  XBeta           ....  0.004200
 Correlation Functional Correlation     .... LYP
 LDA part of GGA corr.  LDAOpt          .... VWN-5
 Gradients option       PostSCFGGA      .... off
 Hybrid DFT is turned on
   Fraction HF Exchange ScalHFX         ....  0.200000
   Scaling of DF-GGA-X  ScalDFX         ....  0.720000
   Scaling of DF-GGA-C  ScalDFC         ....  0.810000
   Scaling of DF-LDA-C  ScalLDAC        ....  1.000000
   Perturbative correction              ....  0.000000
   Density functional embedding theory  .... OFF
   NL short-range parameter             ....  4.800000
 RI-approximation to the Coulomb term is turned on
   Number of AuxJ basis functions       .... 240
   RIJ-COSX (HFX calculated with COS-X)).... on


General Settings:
 Integral files         IntName         .... acrolien.611
 Hartree-Fock type      HFTyp           .... RHF
 Total Charge           Charge          ....    0
 Multiplicity           Mult            ....    1
 Number of Electrons    NEL             ....   30
 Basis Dimension        Dim             ....   44
 Nuclear Repulsion      ENuc            ....    104.5002430563 Eh

Convergence Acceleration:
 DIIS                   CNVDIIS         .... on
   Start iteration      DIISMaxIt       ....    12
   Startup error        DIISStart       ....  0.200000
   # of expansion vecs  DIISMaxEq       ....     5
   Bias factor          DIISBfac        ....   1.050
   Max. coefficient     DIISMaxC        ....  10.000
 Trust-Rad. Augm. Hess. CNVTRAH         .... auto
   Auto Start mean grad. ratio tolernc. ....  1.125000
   Auto Start start iteration           ....    20
   Auto Start num. interpolation iter.  ....    10
   Max. Number of Micro iterations      ....    16
   Max. Number of Macro iterations      .... Maxiter - #DIIS iter
   Number of Davidson start vectors     ....     2
   Converg. threshold I  (grad. norm)   ....   1.000e-05
   Converg. threshold II (energy diff.) ....   1.000e-08
   Grad. Scal. Fac. for Micro threshold ....   0.100
   Minimum threshold for Micro iter.    ....   0.010
   NR start threshold (gradient norm)   ....   0.001
   Initial trust radius                 ....   0.400
   Minimum AH scaling param. (alpha)    ....   1.000
   Maximum AH scaling param. (alpha)    .... 1000.000
   Orbital update algorithm             .... Taylor
   White noise on init. David. guess    .... on
   Maximum white noise                  ....   0.010
   Quad. conv. algorithm                .... NR
 SOSCF                  CNVSOSCF        .... on
   Start iteration      SOSCFMaxIt      ....   150
   Startup grad/error   SOSCFStart      ....  0.003300
 Level Shifting         CNVShift        .... on
   Level shift para.    LevelShift      ....    0.2500
   Turn off err/grad.   ShiftErr        ....    0.0010
 Zerner damping         CNVZerner       .... off
 Static damping         CNVDamp         .... on
   Fraction old density DampFac         ....    0.7000
   Max. Damping (<1)    DampMax         ....    0.9800
   Min. Damping (>=0)   DampMin         ....    0.0000
   Turn off err/grad.   DampErr         ....    0.1000
 Fernandez-Rico         CNVRico         .... off

SCF Procedure:
 Maximum # iterations   MaxIter         ....   500
 SCF integral mode      SCFMode         .... Direct
   Integral package                     .... SHARK and LIBINT hybrid scheme
 Reset frequency        DirectResetFreq ....    20
 Integral Threshold     Thresh          ....  2.500e-11 Eh
 Primitive CutOff       TCut            ....  2.500e-12 Eh

Convergence Tolerance:
 Convergence Check Mode ConvCheckMode   .... Total+1el-Energy
 Convergence forced     ConvForced      .... 1
 Energy Change          TolE            ....  1.000e-08 Eh
 1-El. energy change                    ....  1.000e-05 Eh
 Orbital Gradient       TolG            ....  1.000e-05
 Orbital Rotation angle TolX            ....  1.000e-05
 DIIS Error             TolErr          ....  5.000e-07


Diagonalization of the overlap matrix:
Smallest eigenvalue                        ... 5.873e-03
Time for diagonalization                   ...    0.058 sec
Threshold for overlap eigenvalues          ... 1.000e-08
Number of eigenvalues below threshold      ... 0
Time for construction of square roots      ...    0.078 sec
Total time needed                          ...    0.136 sec

Time for model grid setup =    0.127 sec

------------------------------
INITIAL GUESS: MODEL POTENTIAL
------------------------------
Loading Hartree-Fock densities                     ... done
Calculating cut-offs                               ... done
Initializing the effective Hamiltonian             ... done
Setting up the integral package (SHARK)            ... done
Starting the Coulomb interaction                   ... done (   0.7 sec)
Reading the grid                                   ... done
Mapping shells                                     ... done
Starting the XC term evaluation                    ... done (   0.0 sec)
  promolecular density results
     # of electrons  =     29.998888699
     EX              =    -24.754012531
     EC              =     -0.996644382
     EX+EC           =    -25.750656912
Transforming the Hamiltonian                       ... done (   0.4 sec)
Diagonalizing the Hamiltonian                      ... done (   0.0 sec)
Back transforming the eigenvectors                 ... done (   0.0 sec)
Now organizing SCF variables                       ... done
                      ------------------
                      INITIAL GUESS DONE (   1.6 sec)
                      ------------------
-------------------
DFT GRID GENERATION
-------------------

General Integration Accuracy     IntAcc      ... 4.388
Radial Grid Type                 RadialGrid  ... OptM3 with GC (2021)
Angular Grid (max. ang.)         AngularGrid ... 4 (Lebedev-302)
Angular grid pruning method      GridPruning ... 4 (adaptive)
Weight generation scheme         WeightScheme... Becke
Basis function cutoff            BFCut       ... 1.0000e-11
Integration weight cutoff        WCut        ... 1.0000e-14
Angular grids for H and He will be reduced by one unit
Partially contracted basis set               ... off
Rotationally invariant grid construction     ... off

Total number of grid points                  ...    37384
Total number of batches                      ...      588
Average number of points per batch           ...       63
Average number of grid points per atom       ...     4673
Time for grid setup =    0.682 sec

--------------------
COSX GRID GENERATION
--------------------

GRIDX 1
-------
General Integration Accuracy     IntAcc      ... 3.816
Radial Grid Type                 RadialGrid  ... OptM3 with GC (2021)
Angular Grid (max. ang.)         AngularGrid ... 1 (Lebedev-50)
Angular grid pruning method      GridPruning ... 4 (adaptive)
Weight generation scheme         WeightScheme... Becke
Basis function cutoff            BFCut       ... 1.0000e-11
Integration weight cutoff        WCut        ... 1.0000e-14
Angular grids for H and He will be reduced by one unit
Partially contracted basis set               ... on
Rotationally invariant grid construction     ... off

Total number of grid points                  ...     4804
Total number of batches                      ...       79
Average number of points per batch           ...       60
Average number of grid points per atom       ...      600
UseSFitting                                  ... on

GRIDX 2
-------
General Integration Accuracy     IntAcc      ... 4.020
Radial Grid Type                 RadialGrid  ... OptM3 with GC (2021)
Angular Grid (max. ang.)         AngularGrid ... 2 (Lebedev-110)
Angular grid pruning method      GridPruning ... 4 (adaptive)
Weight generation scheme         WeightScheme... Becke
Basis function cutoff            BFCut       ... 1.0000e-11
Integration weight cutoff        WCut        ... 1.0000e-14
Angular grids for H and He will be reduced by one unit
Partially contracted basis set               ... on
Rotationally invariant grid construction     ... off

Total number of grid points                  ...    10566
Total number of batches                      ...      170
Average number of points per batch           ...       62
Average number of grid points per atom       ...     1321
UseSFitting                                  ... on

GRIDX 3
-------
General Integration Accuracy     IntAcc      ... 4.338
Radial Grid Type                 RadialGrid  ... OptM3 with GC (2021)
Angular Grid (max. ang.)         AngularGrid ... 3 (Lebedev-194)
Angular grid pruning method      GridPruning ... 4 (adaptive)
Weight generation scheme         WeightScheme... Becke
Basis function cutoff            BFCut       ... 1.0000e-11
Integration weight cutoff        WCut        ... 1.0000e-14
Angular grids for H and He will be reduced by one unit
Partially contracted basis set               ... on
Rotationally invariant grid construction     ... off

Total number of grid points                  ...    23282
Total number of batches                      ...      367
Average number of points per batch           ...       63
Average number of grid points per atom       ...     2910
UseSFitting                                  ... on

Time for X-Grid setup             =    1.738 sec

--------------
SCF ITERATIONS
--------------
ITER       Energy         Delta-E        Max-DP      RMS-DP      [F,P]     Damp
               ***  Starting incremental Fock matrix formation  ***
  0   -191.5990028624   0.000000000000 0.09717095  0.00820651  0.2477800 0.7000
  1   -191.6631273606  -0.064124498154 0.05459805  0.00490232  0.0893894 0.7000
                               ***Turning on DIIS***
  2   -191.6840361047  -0.020908744093 0.06272092  0.00616242  0.0332626 0.0000
  3   -191.7228520434  -0.038815938691 0.03877755  0.00371330  0.0436740 0.0000
  4   -191.7288748958  -0.006022852449 0.01093987  0.00111239  0.0192087 0.0000
                      *** Initiating the SOSCF procedure ***
                           *** Shutting down DIIS ***
                      *** Re-Reading the Fockian *** 
                      *** Removing any level shift *** 
ITER      Energy       Delta-E        Grad      Rot      Max-DP    RMS-DP
  5   -191.72993247  -0.0010575722  0.000519  0.000519  0.003617  0.000297
               *** Restarting incremental Fock matrix formation ***
  6   -191.72994116  -0.0000086942  0.000290  0.000882  0.001580  0.000151
  7   -191.72994087   0.0000002956  0.000418  0.000472  0.001095  0.000084
  8   -191.72994300  -0.0000021295  0.000122  0.000196  0.000487  0.000048
  9   -191.72994300  -0.0000000046  0.000093  0.000103  0.000210  0.000018
 10   -191.72994326  -0.0000002608  0.000011  0.000051  0.000044  0.000004
 11   -191.72994326   0.0000000013  0.000021  0.000034  0.000032  0.000002
                  ***Gradient check signals convergence***
              ***Rediagonalizing the Fockian in SOSCF/NRSCF***

               *****************************************************
               *                     SUCCESS                       *
               *           SCF CONVERGED AFTER  12 CYCLES          *
               *****************************************************

Old exchange energy                            =     -5.023521409 Eh
New exchange energy                            =     -5.023524059 Eh
Exchange energy change after final integration =     -0.000002650 Eh
Total energy after final integration           =   -191.729945914 Eh
Final COS-X integration done in                =     0.798 sec

----------------
TOTAL SCF ENERGY
----------------

Total Energy       :         -191.72994591 Eh           -5217.23707 eV

Components:
Nuclear Repulsion  :          104.50024306 Eh            2843.59618 eV
Electronic Energy  :         -296.23018897 Eh           -8060.83325 eV
One Electron Energy:         -465.96623780 Eh          -12679.58595 eV
Two Electron Energy:          169.73604883 Eh            4618.75270 eV
Max COSX asymmetry :            0.00000125 Eh               0.00003 eV

Virial components:
Potential Energy   :         -382.66693453 Eh          -10412.89667 eV
Kinetic Energy     :          190.93698861 Eh            5195.65960 eV
Virial Ratio       :            2.00415298


DFT components:
N(Alpha)           :       15.000003866773 electrons
N(Beta)            :       15.000003866773 electrons
N(Total)           :       30.000007733545 electrons
E(X)               :      -19.995988411359 Eh       
E(C)               :       -1.184024703024 Eh       
E(XC)              :      -21.180013114383 Eh       
DFET-embed. en.    :        0.000000000000 Eh       

---------------
SCF CONVERGENCE
---------------

  Last Energy change         ...   -3.1524e-09  Tolerance :   1.0000e-08
  Last MAX-Density change    ...    2.2204e-15  Tolerance :   1.0000e-07
  Last RMS-Density change    ...    9.8150e-17  Tolerance :   5.0000e-09
  Last Orbital Gradient      ...    1.6593e-06  Tolerance :   1.0000e-05
  Last Orbital Rotation      ...    3.5744e-06  Tolerance :   1.0000e-05

             **** THE GBW FILE WAS UPDATED (acrolien.611.gbw) ****
             **** DENSITY acrolien.611.scfp WAS UPDATED ****
             **** ENERGY FILE WAS UPDATED (acrolien.611.en.tmp) ****
             **** THE GBW FILE WAS UPDATED (acrolien.611.gbw) ****
             **** DENSITY acrolien.611.scfp WAS UPDATED ****
----------------
ORBITAL ENERGIES
----------------

  NO   OCC          E(Eh)            E(eV) 
   0   2.0000     -19.145108      -520.9649 
   1   2.0000     -10.272525      -279.5296 
   2   2.0000     -10.209479      -277.8140 
   3   2.0000     -10.208192      -277.7790 
   4   2.0000      -1.063207       -28.9313 
   5   2.0000      -0.805667       -21.9233 
   6   2.0000      -0.675268       -18.3750 
   7   2.0000      -0.548453       -14.9242 
   8   2.0000      -0.511395       -13.9158 
   9   2.0000      -0.460357       -12.5270 
  10   2.0000      -0.435625       -11.8540 
  11   2.0000      -0.394263       -10.7285 
  12   2.0000      -0.375498       -10.2178 
  13   2.0000      -0.289175        -7.8689 
  14   2.0000      -0.252706        -6.8765 
  15   0.0000      -0.062774        -1.7082 
  16   0.0000       0.039300         1.0694 
  17   0.0000       0.093076         2.5327 
  18   0.0000       0.131586         3.5806 
  19   0.0000       0.153770         4.1843 
  20   0.0000       0.189098         5.1456 
  21   0.0000       0.285361         7.7651 
  22   0.0000       0.313767         8.5380 
  23   0.0000       0.370058        10.0698 
  24   0.0000       0.512415        13.9435 
  25   0.0000       0.535263        14.5652 
  26   0.0000       0.567421        15.4403 
  27   0.0000       0.591203        16.0875 
  28   0.0000       0.638796        17.3825 
  29   0.0000       0.674271        18.3479 
  30   0.0000       0.693182        18.8624 
  31   0.0000       0.722506        19.6604 
  32   0.0000       0.809677        22.0324 
  33   0.0000       0.843913        22.9640 
  34   0.0000       0.879792        23.9404 
  35   0.0000       0.917637        24.9702 
  36   0.0000       0.951448        25.8902 
  37   0.0000       0.988906        26.9095 
  38   0.0000       1.017103        27.6768 
  39   0.0000       1.053253        28.6605 
  40   0.0000       1.141622        31.0651 
  41   0.0000       1.160162        31.5696 
  42   0.0000       1.232552        33.5394 
  43   0.0000       1.728091        47.0237 

                    ********************************
                    * MULLIKEN POPULATION ANALYSIS *
                    ********************************

-----------------------
MULLIKEN ATOMIC CHARGES
-----------------------
   0 C :    0.154697
   1 O :   -0.365420
   2 C :   -0.095961
   3 C :   -0.257904
   4 H :    0.110177
   5 H :    0.140792
   6 H :    0.165050
   7 H :    0.148569
Sum of atomic charges:   -0.0000000

--------------------------------
MULLIKEN REDUCED ORBITAL CHARGES
--------------------------------
  0 C s       :     3.165877  s :     3.165877
      pz      :     0.845117  p :     2.679425
      px      :     1.029710
      py      :     0.804599
  1 O s       :     3.946672  s :     3.946672
      pz      :     1.352782  p :     4.418748
      px      :     1.752645
      py      :     1.313321
  2 C s       :     3.186886  s :     3.186886
      pz      :     1.008102  p :     2.909075
      px      :     0.912361
      py      :     0.988612
  3 C s       :     3.270474  s :     3.270474
      pz      :     0.953737  p :     2.987430
      px      :     1.000953
      py      :     1.032741
  4 H s       :     0.889823  s :     0.889823
  5 H s       :     0.859208  s :     0.859208
  6 H s       :     0.834950  s :     0.834950
  7 H s       :     0.851431  s :     0.851431


                     *******************************
                     * LOEWDIN POPULATION ANALYSIS *
                     *******************************

----------------------
LOEWDIN ATOMIC CHARGES
----------------------
   0 C :    0.103735
   1 O :   -0.235072
   2 C :   -0.161190
   3 C :   -0.168180
   4 H :    0.078470
   5 H :    0.124834
   6 H :    0.131285
   7 H :    0.126119

-------------------------------
LOEWDIN REDUCED ORBITAL CHARGES
-------------------------------
  0 C s       :     2.962269  s :     2.962269
      pz      :     0.871835  p :     2.933996
      px      :     1.069896
      py      :     0.992264
  1 O s       :     3.637165  s :     3.637165
      pz      :     1.377625  p :     4.597907
      px      :     1.793001
      py      :     1.427281
  2 C s       :     2.969647  s :     2.969647
      pz      :     1.007238  p :     3.191543
      px      :     1.107479
      py      :     1.076827
  3 C s       :     2.996458  s :     2.996458
      pz      :     0.958340  p :     3.171722
      px      :     1.104500
      py      :     1.108881
  4 H s       :     0.921530  s :     0.921530
  5 H s       :     0.875166  s :     0.875166
  6 H s       :     0.868715  s :     0.868715
  7 H s       :     0.873881  s :     0.873881


                      *****************************
                      * MAYER POPULATION ANALYSIS *
                      *****************************

  NA   - Mulliken gross atomic population
  ZA   - Total nuclear charge
  QA   - Mulliken gross atomic charge
  VA   - Mayer's total valence
  BVA  - Mayer's bonded valence
  FA   - Mayer's free valence

  ATOM       NA         ZA         QA         VA         BVA        FA
  0 C      5.8453     6.0000     0.1547     3.7806     3.7806     0.0000
  1 O      8.3654     8.0000    -0.3654     2.0075     2.0075    -0.0000
  2 C      6.0960     6.0000    -0.0960     3.7386     3.7386    -0.0000
  3 C      6.2579     6.0000    -0.2579     3.8878     3.8878    -0.0000
  4 H      0.8898     1.0000     0.1102     0.9270     0.9270    -0.0000
  5 H      0.8592     1.0000     0.1408     0.9460     0.9460    -0.0000
  6 H      0.8349     1.0000     0.1651     0.9365     0.9365    -0.0000
  7 H      0.8514     1.0000     0.1486     0.9401     0.9401    -0.0000

  Mayer bond orders larger than 0.100000
B(  0-C ,  1-O ) :   1.8893 B(  0-C ,  2-C ) :   0.9861 B(  0-C ,  4-H ) :   0.8818 
B(  2-C ,  3-C ) :   1.9009 B(  2-C ,  5-H ) :   0.9201 B(  3-C ,  6-H ) :   0.9402 
B(  3-C ,  7-H ) :   0.9410 

-------
TIMINGS
-------

Total SCF time: 0 days 0 hours 0 min 42 sec 

Total time                  ....      42.465 sec
Sum of individual times     ....      35.876 sec  ( 84.5%)

Fock matrix formation       ....      31.753 sec  ( 74.8%)
  Split-RI-J                ....       0.588 sec  (  1.9% of F)
  Chain of spheres X        ....       4.447 sec  ( 14.0% of F)
  XC integration            ....      12.924 sec  ( 40.7% of F)
    Basis function eval.    ....       1.063 sec  (  8.2% of XC)
    Density eval.           ....       0.352 sec  (  2.7% of XC)
    XC-Functional eval.     ....       0.610 sec  (  4.7% of XC)
    XC-Potential eval.      ....       0.233 sec  (  1.8% of XC)
Diagonalization             ....       0.003 sec  (  0.0%)
Density matrix formation    ....       0.000 sec  (  0.0%)
Population analysis         ....       0.002 sec  (  0.0%)
Initial guess               ....       1.517 sec  (  3.6%)
Orbital Transformation      ....       0.000 sec  (  0.0%)
Orbital Orthonormalization  ....       0.000 sec  (  0.0%)
DIIS solution               ....       0.051 sec  (  0.1%)
SOSCF solution              ....       0.002 sec  (  0.0%)
Grid generation             ....       2.548 sec  (  6.0%)

Maximum memory used throughout the entire SCF-calculation: 46.8 MB
------------------------------------------------------------------------------
                        ORCA TD-DFT/TDA CALCULATION
------------------------------------------------------------------------------

Input orbitals are from        ... acrolien.611.gbw
CI-vector output               ... acrolien.611.cis
Tamm-Dancoff approximation     ... operative
CIS-Integral strategy          ... AO-integrals
Integral handling              ... AO integral Direct
Max. core memory used          ... 512 MB
Reference state                ... RHF
Generation of triplets         ... off
Follow IRoot                   ... off
Number of operators            ... 1
Orbital ranges used for CIS calculation:
 Operator 0:  Orbitals   4... 14  to  15... 43
XAS localization array:
 Operator 0:  Orbitals  -1... -1

-------------------
XC-INTEGRATION GRID
-------------------

General Integration Accuracy     IntAcc      ... 3.467
Radial Grid Type                 RadialGrid  ... OptM3 with GC (2021)
Angular Grid (max. ang.)         AngularGrid ... 1 (Lebedev-50)
Angular grid pruning method      GridPruning ... 4 (adaptive)
Weight generation scheme         WeightScheme... Becke
Basis function cutoff            BFCut       ... 1.0000e-11
Integration weight cutoff        WCut        ... 1.0000e-14
Angular grids for H and He will be reduced by one unit
Partially contracted basis set               ... off
Rotationally invariant grid construction     ... off

Total number of grid points                  ...     5501
Total number of batches                      ...       90
Average number of points per batch           ...       61
Average number of grid points per atom       ...      688

---------------------
COSX-INTEGRATION GRID
---------------------

General Integration Accuracy     IntAcc      ... 3.067
Radial Grid Type                 RadialGrid  ... OptM3 with GC (2021)
Angular Grid (max. ang.)         AngularGrid ... 1 (Lebedev-50)
Angular grid pruning method      GridPruning ... 4 (adaptive)
Weight generation scheme         WeightScheme... Becke
Basis function cutoff            BFCut       ... 1.0000e-11
Integration weight cutoff        WCut        ... 1.0000e-14
Angular grids for H and He will be reduced by one unit
Partially contracted basis set               ... on
Rotationally invariant grid construction     ... off

Total number of grid points                  ...     2511
Total number of batches                      ...       45
Average number of points per batch           ...       55
Average number of grid points per atom       ...      314

---------------
TD-DFT XC SETUP
---------------

DFT calculation                         ... on
Name of the grid file                   ... acrolien.611.grid_cis.tmp
Exchange functional (TD-DFT)            ... B88
   X-Alpha parameter    XAlpha (TD-DFT) ...  0.666667
   Becke's b parameter  XBeta (TD-DFT)  ...  0.004200
Correlation functional (TD-DFT)         ... LYP
 LDA part of GGA corr.  LDAOpt (TD-DFT) ... VWN-5
Hybrid DFT                              ... on
   Exchange mixing (TD-DFT)             ...  0.200
   GGA exch. scaling (TD-DFT)           ...  0.720
   GGA corr. scaling (TD-DFT)           ...  0.810

Building densities             ... done
Calculating rho(r) on the grid ... done
Building xc-kernel on the grid ... done
                    *** TD-DFT CALCULATION INITIALIZED ***

------------------------
DAVIDSON-DIAGONALIZATION
------------------------

Dimension of the eigenvalue problem            ...    319
Number of roots to be determined               ...      1
Maximum size of the expansion space            ...     10
Maximum number of iterations                   ...    100
Convergence tolerance for the residual         ...    2.500e-07
Convergence tolerance for the energies         ...    2.500e-07
Orthogonality tolerance                        ...    1.000e-14
Level Shift                                    ...    0.000e+00
Constructing the preconditioner                ... o.k.
Building the initial guess                     ... o.k.
Number of trial vectors determined             ...     10


                       ****Iteration    0****

   Memory handling for direct AO based CIS:
   Memory per vector needed      ...     1 MB
   Memory needed                 ...     0 MB
   Memory available              ...   512 MB
   Number of vectors per batch   ...   512
   Number of batches             ...     1
   Time for densities:            0.000
   Time for RI-J (Direct):        0.044
   Time for K (COSX):             0.118
   Time for XC-Integration:       0.039
   Time for Sigma-Completion:     0.000
   Size of expansion space: 3
   Lowest Energy          :     0.129864425909
   Maximum Energy change  :     0.129864425909 (vector 0)
   Maximum residual norm  :     0.000607743496

                       ****Iteration    1****
   Time for densities:            0.000
   Time for RI-J (Direct):        0.034
   Time for K (COSX):             0.785
   Time for XC-Integration:       0.022
   Time for Sigma-Completion:     0.000
   Size of expansion space: 4
   Lowest Energy          :     0.128881793173
   Maximum Energy change  :     0.000982632736 (vector 0)
   Maximum residual norm  :     0.000068550135

                       ****Iteration    2****
   Time for densities:            0.000
   Time for RI-J (Direct):        0.034
   Time for K (COSX):             0.107
   Time for XC-Integration:       0.022
   Time for Sigma-Completion:     0.000
   Size of expansion space: 5
   Lowest Energy          :     0.128818814307
   Maximum Energy change  :     0.000062978866 (vector 0)
   Maximum residual norm  :     0.000006417079

                       ****Iteration    3****
   Time for densities:            0.000
   Time for RI-J (Direct):        0.033
   Time for K (COSX):             0.108
   Time for XC-Integration:       0.022
   Time for Sigma-Completion:     0.000
   Size of expansion space: 6
   Lowest Energy          :     0.128812172762
   Maximum Energy change  :     0.000006641545 (vector 0)
   Maximum residual norm  :     0.000000378435

                       ****Iteration    4****
   Time for densities:            0.000
   Time for RI-J (Direct):        0.033
   Time for K (COSX):             0.108
   Time for XC-Integration:       0.022
   Time for Sigma-Completion:     0.000
   Size of expansion space: 7
   Lowest Energy          :     0.128811692943
   Maximum Energy change  :     0.000000479820 (vector 0)
   Maximum residual norm  :     0.000000013679

      *** CONVERGENCE OF RESIDUAL NORM REACHED ***

Storing the converged CI vectors               ... acrolien.611.cis1

                 *** DAVIDSON DONE ***

Total time for solving the CIS problem:     3.280sec

------------------------------------
TD-DFT/TDA EXCITED STATES (SINGLETS)
------------------------------------

the weight of the individual excitations are printed if larger than 1.0e-02

STATE  1:  E=   0.128812 au      3.505 eV    28270.9 cm**-1 <S**2> =   0.000000
    14a ->  15a  :     0.975646 (c=  0.98774804)
    14a ->  16a  :     0.021339 (c= -0.14607936)


-----------------------------
TD-DFT/TDA-EXCITATION SPECTRA
-----------------------------

Center of mass = ( -0.6551, -0.7170, -0.2082)
Calculating the Dipole integrals                  ... done
Transforming integrals                            ... done
Calculating the Linear Momentum integrals         ... done
Transforming integrals                            ... done
Calculating angular momentum integrals            ... done
Transforming integrals                            ... done

-----------------------------------------------------------------------------
         ABSORPTION SPECTRUM VIA TRANSITION ELECTRIC DIPOLE MOMENTS
-----------------------------------------------------------------------------
State   Energy    Wavelength  fosc         T2        TX        TY        TZ  
        (cm-1)      (nm)                 (au**2)    (au)      (au)      (au) 
-----------------------------------------------------------------------------
   1   28270.9    353.7   0.000266408   0.00310  -0.05148  -0.01740  -0.01223

-----------------------------------------------------------------------------
         ABSORPTION SPECTRUM VIA TRANSITION VELOCITY DIPOLE MOMENTS
-----------------------------------------------------------------------------
State   Energy    Wavelength   fosc        P2         PX        PY        PZ  
        (cm-1)      (nm)                 (au**2)     (au)      (au)      (au) 
-----------------------------------------------------------------------------
   1   28270.9    353.7   0.000295963   0.00006  -0.00643   0.00257   0.00305

-------------------------------------------------------------------
                             CD SPECTRUM
-------------------------------------------------------------------
State  Energy     Wavelength     R         MX        MY        MZ   
       (cm-1)       (nm)     (1e40*cgs)   (au)      (au)      (au)  
-------------------------------------------------------------------
   1   28270.9    353.7      6.69283  -0.10835  -0.37974  -0.16430

-------------------------------------------------------------------
         CD SPECTRUM VIA TRANSITION VELOCITY DIPOLE MOMENTS        
-------------------------------------------------------------------
State  Energy     Wavelength     R         MX        MY        MZ   
       (cm-1)       (nm)     (1e40*cgs)   (au)      (au)      (au)  
-------------------------------------------------------------------
   1   28270.9    353.7     -2.85482  -0.10835  -0.37974  -0.16430

Total run time:        5.534 sec

           *** ORCA-CIS/TD-DFT FINISHED WITHOUT ERROR ***

Maximum memory used throughout the entire CIS-calculation: 42.9 MB

-----------------------
CIS/TD-DFT TOTAL ENERGY
-----------------------

    E(SCF)  =   -191.729945914 Eh
    DE(CIS) =      0.128811693 Eh (Root  1)
    ----------------------------- ---------
    E(tot)  =   -191.601134221 Eh


-------------------------   --------------------
FINAL SINGLE POINT ENERGY      -191.601134220680
-------------------------   --------------------


                            ***************************************
                            *     ORCA property calculations      *
                            ***************************************

                                    ---------------------
                                    Active property flags
                                    ---------------------
   (+) Dipole Moment


------------------------------------------------------------------------------
                       ORCA ELECTRIC PROPERTIES CALCULATION
------------------------------------------------------------------------------

Dipole Moment Calculation                       ... on
Quadrupole Moment Calculation                   ... off
Polarizability Calculation                      ... off
GBWName                                         ... acrolien.611.gbw
Electron density                                ... acrolien.611.scfp
The origin for moment calculation is the CENTER OF MASS  = (-0.655149, -0.717000 -0.208157)

-------------
DIPOLE MOMENT
-------------
                                X             Y             Z
Electronic contribution:     -1.96207      -1.69988      -0.49866
Nuclear contribution   :      2.53556       2.68874       0.83787
                        -----------------------------------------
Total Dipole Moment    :      0.57350       0.98886       0.33921
                        -----------------------------------------
Magnitude (a.u.)       :      1.19240
Magnitude (Debye)      :      3.03084



--------------------
Rotational spectrum 
--------------------
 
Rotational constants in cm-1:     0.860856     0.190662     0.161123 
Rotational constants in MHz : 25807.799023  5715.906655  4830.339899 

 Dipole components along the rotational axes: 
x,y,z [a.u.] :    -1.010330    -0.598640    -0.206582 
x,y,z [Debye]:    -2.568056    -1.521621    -0.525091 

 

Timings for individual modules:

Sum of individual times         ...       50.277 sec (=   0.838 min)
GTO integral calculation        ...        1.815 sec (=   0.030 min)   3.6 %
SCF iterations                  ...       42.919 sec (=   0.715 min)  85.4 %
CIS module                      ...        5.543 sec (=   0.092 min)  11.0 %
                             ****ORCA TERMINATED NORMALLY****
TOTAL RUN TIME: 0 days 0 hours 0 minutes 52 seconds 632 msec
