
                                 *****************
                                 * O   R   C   A *
                                 *****************

                                            #,                                       
                                            ###                                      
                                            ####                                     
                                            #####                                    
                                            ######                                   
                                           ########,                                 
                                     ,,################,,,,,                         
                               ,,#################################,,                 
                          ,,##########################################,,             
                       ,#########################################, ''#####,          
                    ,#############################################,,   '####,        
                  ,##################################################,,,,####,       
                ,###########''''           ''''###############################       
              ,#####''   ,,,,##########,,,,          '''####'''          '####       
            ,##' ,,,,###########################,,,                        '##       
           ' ,,###''''                  '''############,,,                           
         ,,##''                                '''############,,,,        ,,,,,,###''
      ,#''                                            '''#######################'''  
     '                                                          ''''####''''         
             ,#######,   #######,   ,#######,      ##                                
            ,#'     '#,  ##    ##  ,#'     '#,    #''#        ######   ,####,        
            ##       ##  ##   ,#'  ##            #'  '#       #        #'  '#        
            ##       ##  #######   ##           ,######,      #####,   #    #        
            '#,     ,#'  ##    ##  '#,     ,#' ,#      #,         ##   #,  ,#        
             '#######'   ##     ##  '#######'  #'      '#     #####' # '####'        



                  #######################################################
                  #                        -***-                        #
                  #          Department of theory and spectroscopy      #
                  #    Directorship and core code : Frank Neese         #
                  #        Max Planck Institute fuer Kohlenforschung    #
                  #                Kaiser Wilhelm Platz 1               #
                  #                 D-45470 Muelheim/Ruhr               #
                  #                      Germany                        #
                  #                                                     #
                  #                  All rights reserved                #
                  #                        -***-                        #
                  #######################################################


                         Program Version 5.0.3 -  RELEASE  -


 With contributions from (in alphabetic order):
   Daniel Aravena         : Magnetic Suceptibility
   Michael Atanasov       : Ab Initio Ligand Field Theory (pilot matlab implementation)
   Alexander A. Auer      : GIAO ZORA, VPT2 properties, NMR spectrum
   Ute Becker             : Parallelization
   Giovanni Bistoni       : ED, misc. LED, open-shell LED, HFLD
   Martin Brehm           : Molecular dynamics
   Dmytro Bykov           : SCF Hessian
   Vijay G. Chilkuri      : MRCI spin determinant printing, contributions to CSF-ICE
   Dipayan Datta          : RHF DLPNO-CCSD density
   Achintya Kumar Dutta   : EOM-CC, STEOM-CC
   Dmitry Ganyushin       : Spin-Orbit,Spin-Spin,Magnetic field MRCI
   Miquel Garcia          : C-PCM and meta-GGA Hessian, CC/C-PCM, Gaussian charge scheme
   Yang Guo               : DLPNO-NEVPT2, F12-NEVPT2, CIM, IAO-localization
   Andreas Hansen         : Spin unrestricted coupled pair/coupled cluster methods
   Benjamin Helmich-Paris : MC-RPA, TRAH-SCF, COSX integrals
   Lee Huntington         : MR-EOM, pCC
   Robert Izsak           : Overlap fitted RIJCOSX, COSX-SCS-MP3, EOM
   Marcus Kettner         : VPT2
   Christian Kollmar      : KDIIS, OOCD, Brueckner-CCSD(T), CCSD density, CASPT2, CASPT2-K
   Simone Kossmann        : Meta GGA functionals, TD-DFT gradient, OOMP2, MP2 Hessian
   Martin Krupicka        : Initial AUTO-CI
   Lucas Lang             : DCDCAS
   Marvin Lechner         : AUTO-CI (C++ implementation), FIC-MRCC
   Dagmar Lenk            : GEPOL surface, SMD
   Dimitrios Liakos       : Extrapolation schemes; Compound Job, initial MDCI parallelization
   Dimitrios Manganas     : Further ROCIS development; embedding schemes
   Dimitrios Pantazis     : SARC Basis sets
   Anastasios Papadopoulos: AUTO-CI, single reference methods and gradients
   Taras Petrenko         : DFT Hessian,TD-DFT gradient, ASA, ECA, R-Raman, ABS, FL, XAS/XES, NRVS
   Peter Pinski           : DLPNO-MP2, DLPNO-MP2 Gradient
   Christoph Reimann      : Effective Core Potentials
   Marius Retegan         : Local ZFS, SOC
   Christoph Riplinger    : Optimizer, TS searches, QM/MM, DLPNO-CCSD(T), (RO)-DLPNO pert. Triples
   Tobias Risthaus        : Range-separated hybrids, TD-DFT gradient, RPA, STAB
   Michael Roemelt        : Original ROCIS implementation
   Masaaki Saitow         : Open-shell DLPNO-CCSD energy and density
   Barbara Sandhoefer     : DKH picture change effects
   Avijit Sen             : IP-ROCIS
   Kantharuban Sivalingam : CASSCF convergence, NEVPT2, FIC-MRCI
   Bernardo de Souza      : ESD, SOC TD-DFT
   Georgi Stoychev        : AutoAux, RI-MP2 NMR, DLPNO-MP2 response
   Willem Van den Heuvel  : Paramagnetic NMR
   Boris Wezisla          : Elementary symmetry handling
   Frank Wennmohs         : Technical directorship


 We gratefully acknowledge several colleagues who have allowed us to
 interface, adapt or use parts of their codes:
   Stefan Grimme, W. Hujo, H. Kruse, P. Pracht,  : VdW corrections, initial TS optimization,
                  C. Bannwarth, S. Ehlert          DFT functionals, gCP, sTDA/sTD-DF
   Ed Valeev, F. Pavosevic, A. Kumar             : LibInt (2-el integral package), F12 methods
   Garnet Chan, S. Sharma, J. Yang, R. Olivares  : DMRG
   Ulf Ekstrom                                   : XCFun DFT Library
   Mihaly Kallay                                 : mrcc  (arbitrary order and MRCC methods)
   Jiri Pittner, Ondrej Demel                    : Mk-CCSD
   Frank Weinhold                                : gennbo (NPA and NBO analysis)
   Christopher J. Cramer and Donald G. Truhlar   : smd solvation model
   Lars Goerigk                                  : TD-DFT with DH, B97 family of functionals
   V. Asgeirsson, H. Jonsson                     : NEB implementation
   FAccTs GmbH                                   : IRC, NEB, NEB-TS, DLPNO-Multilevel, CI-OPT
                                                   MM, QMMM, 2- and 3-layer-ONIOM, Crystal-QMMM,
                                                   LR-CPCM, SF, NACMEs, symmetry and pop. for TD-DFT,
                                                   nearIR, NL-DFT gradient (VV10), updates on ESD,
                                                   ML-optimized integration grids
   S Lehtola, MJT Oliveira, MAL Marques          : LibXC Library
   Liviu Ungur et al                             : ANISO software


 Your calculation uses the libint2 library for the computation of 2-el integrals
 For citations please refer to: http://libint.valeyev.net

 Your ORCA version has been built with support for libXC version: 5.1.0
 For citations please refer to: https://tddft.org/programs/libxc/

 This ORCA versions uses:
   CBLAS   interface :  Fast vector & matrix operations
   LAPACKE interface :  Fast linear algebra routines
   SCALAPACK package :  Parallel linear algebra routines
   Shared memory     :  Shared parallel matrices
   BLAS/LAPACK       :  OpenBLAS 0.3.15  USE64BITINT DYNAMIC_ARCH NO_AFFINITY Haswell SINGLE_THREADED
        Core in use  :  Haswell
   Copyright (c) 2011-2014, The OpenBLAS Project


================================================================================

----- Orbital basis set information -----
Your calculation utilizes the basis: 6-31G
   H-He, Li-Ne : W. J. Hehre, R. Ditchfield and J.A. Pople, J. Chem. Phys. 56, 2257 (1972).
                 Note: He and Ne are unpublished basis sets taken from the Gaussian program.
                 Note: Li and B from J. D. Dill and J. A. Pople, J. Chem. Phys. 62, 2921 (1975).
   Na - Ar     : M. M. Francl, W. J. Pietro, W. J. Hehre, J. S. Binkley, M. S. Gordon, 
                 D. J. DeFrees and J. A. Pople, J. Chem. Phys. 77, 3654 (1982).
   K - Zn      : V. A. Rassolov, J. A. Pople, M. A. Ratner, and T. L. Windus, J. Chem. Phys. 109, 1223 (1998).

----- AuxJ basis set information -----
Your calculation utilizes the auxiliary basis: def2/J
   F. Weigend, Phys. Chem. Chem. Phys. 8, 1057 (2006).

================================================================================
                                        WARNINGS
                       Please study these warnings very carefully!
================================================================================

INFO   : Checking CIS options ...

INFO   : the flag for use of the SHARK integral package has been found!

================================================================================
                                       INPUT FILE
================================================================================
NAME = acrolien.1095.com
|  1> ! B3LYP 6-31G
|  2> !TightSCF
|  3> %scf
|  4>  ConvForced true
|  5>  convergence tight
|  6>  MaxIter 500
|  7> end
|  8>  
|  9> %tddft 
| 10>  nroots 1
| 11> end
| 12> 
| 13> # 	6415
| 14> * xyz 0 1
| 15> 		C   -1.129334  -0.376352   0.061289
| 16> 		O   -2.185125  -0.339354   0.828257
| 17> 		C    0.060784   0.371427   0.374123
| 18> 		C    1.163833   0.156554  -0.345407
| 19> 		H   -1.075451  -1.051144  -0.858717
| 20> 		H    0.123066   1.007134   1.205707
| 21> 		H    1.082925  -0.440515  -1.260877
| 22> 		H    1.967245   0.689451  -0.009089
| 23> *
| 24> 
| 25>                          ****END OF INPUT****
================================================================================

                       ****************************
                       * Single Point Calculation *
                       ****************************

---------------------------------
CARTESIAN COORDINATES (ANGSTROEM)
---------------------------------
  C     -1.129334   -0.376352    0.061289
  O     -2.185125   -0.339354    0.828257
  C      0.060784    0.371427    0.374123
  C      1.163833    0.156554   -0.345407
  H     -1.075451   -1.051144   -0.858717
  H      0.123066    1.007134    1.205707
  H      1.082925   -0.440515   -1.260877
  H      1.967245    0.689451   -0.009089

----------------------------
CARTESIAN COORDINATES (A.U.)
----------------------------
  NO LB      ZA    FRAG     MASS         X           Y           Z
   0 C     6.0000    0    12.011   -2.134132   -0.711202    0.115819
   1 O     8.0000    0    15.999   -4.129288   -0.641286    1.565179
   2 C     6.0000    0    12.011    0.114865    0.701895    0.706990
   3 C     6.0000    0    12.011    2.199326    0.295844   -0.652725
   4 H     1.0000    0     1.008   -2.032308   -1.986374   -1.622740
   5 H     1.0000    0     1.008    0.232561    1.903207    2.278456
   6 H     1.0000    0     1.008    2.046432   -0.832453   -2.382712
   7 H     1.0000    0     1.008    3.717554    1.302874   -0.017176

--------------------------------
INTERNAL COORDINATES (ANGSTROEM)
--------------------------------
 C      0   0   0     0.000000000000     0.00000000     0.00000000
 O      1   0   0     1.305489716815     0.00000000     0.00000000
 C      1   2   0     1.439937289718   121.74020354     0.00000000
 C      3   1   2     1.334395340006   118.84506380   171.15840580
 H      1   2   3     1.142216556083   121.87685007   176.21952537
 H      3   1   2     1.048586852115   122.42672334   357.48548792
 H      4   3   1     1.095957488284   118.49733950    11.02467608
 H      4   3   1     1.021058201807   112.87841749   183.67417381

---------------------------
INTERNAL COORDINATES (A.U.)
---------------------------
 C      0   0   0     0.000000000000     0.00000000     0.00000000
 O      1   0   0     2.467018035430     0.00000000     0.00000000
 C      1   2   0     2.721087127588   121.74020354     0.00000000
 C      3   1   2     2.521641746992   118.84506380   171.15840580
 H      1   2   3     2.158476476627   121.87685007   176.21952537
 H      3   1   2     1.981541978128   122.42672334   357.48548792
 H      4   3   1     2.071059507276   118.49733950    11.02467608
 H      4   3   1     1.929520368209   112.87841749   183.67417381

---------------------
BASIS SET INFORMATION
---------------------
There are 3 groups of distinct atoms

 Group   1 Type C   : 10s4p contracted to 3s2p pattern {631/31}
 Group   2 Type O   : 10s4p contracted to 3s2p pattern {631/31}
 Group   3 Type H   : 4s contracted to 2s pattern {31}

Atom   0C    basis set group =>   1
Atom   1O    basis set group =>   2
Atom   2C    basis set group =>   1
Atom   3C    basis set group =>   1
Atom   4H    basis set group =>   3
Atom   5H    basis set group =>   3
Atom   6H    basis set group =>   3
Atom   7H    basis set group =>   3
---------------------------------
AUXILIARY/J BASIS SET INFORMATION
---------------------------------
There are 3 groups of distinct atoms

 Group   1 Type C   : 12s5p4d2f1g contracted to 6s4p3d1f1g pattern {711111/2111/211/2/1}
 Group   2 Type O   : 12s5p4d2f1g contracted to 6s4p3d1f1g pattern {711111/2111/211/2/1}
 Group   3 Type H   : 5s2p1d contracted to 3s1p1d pattern {311/2/1}

Atom   0C    basis set group =>   1
Atom   1O    basis set group =>   2
Atom   2C    basis set group =>   1
Atom   3C    basis set group =>   1
Atom   4H    basis set group =>   3
Atom   5H    basis set group =>   3
Atom   6H    basis set group =>   3
Atom   7H    basis set group =>   3
------------------------------------------------------------------------------
                           ORCA GTO INTEGRAL CALCULATION
                           -- RI-GTO INTEGRALS CHOSEN --
------------------------------------------------------------------------------
------------------------------------------------------------------------------
                   ___                                                        
                  /   \      - P O W E R E D   B Y -                         
                 /     \                                                     
                 |  |  |   _    _      __       _____    __    __             
                 |  |  |  | |  | |    /  \     |  _  \  |  |  /  |          
                  \  \/   | |  | |   /    \    | | | |  |  | /  /          
                 / \  \   | |__| |  /  /\  \   | |_| |  |  |/  /          
                |  |  |   |  __  | /  /__\  \  |    /   |      \           
                |  |  |   | |  | | |   __   |  |    \   |  |\   \          
                \     /   | |  | | |  |  |  |  | |\  \  |  | \   \       
                 \___/    |_|  |_| |__|  |__|  |_| \__\ |__|  \__/        
                                                                              
                      - O R C A' S   B I G   F R I E N D -                    
                                      &                                       
                       - I N T E G R A L  F E E D E R -                       
                                                                              
 v1 FN, 2020, v2 2021                                                         
------------------------------------------------------------------------------


Reading SHARK input file acrolien.1095.SHARKINP.tmp ... ok
----------------------
SHARK INTEGRAL PACKAGE
----------------------

Number of atoms                             ...      8
Number of basis functions                   ...     44
Number of shells                            ...     28
Maximum angular momentum                    ...      1
Integral batch strategy                     ... SHARK/LIBINT Hybrid
RI-J (if used) integral strategy            ... SPLIT-RIJ (Revised 2003 algorithm where possible)
Printlevel                                  ...      1
Contraction scheme used                     ... SEGMENTED contraction
Coulomb Range Separation                    ... NOT USED
Exchange Range Separation                   ... NOT USED
Finite Nucleus Model                        ... NOT USED
Auxiliary Coulomb fitting basis             ... AVAILABLE
   # of basis functions in Aux-J            ...    240
   # of shells in Aux-J                     ...     80
   Maximum angular momentum in Aux-J        ...      4
Auxiliary J/K fitting basis                 ... NOT available
Auxiliary Correlation fitting basis         ... NOT available
Auxiliary 'external' fitting basis          ... NOT available
Integral threshold                          ...     2.500000e-11
Primitive cut-off                           ...     2.500000e-12
Primitive pair pre-selection threshold      ...     2.500000e-12

Calculating pre-screening integrals         ... done (  0.0 sec) Dimension = 28
Organizing shell pair data                  ... done (  0.0 sec)
Shell pair information
Total number of shell pairs                 ...       406
Shell pairs after pre-screening             ...       398
Total number of primitive shell pairs       ...      2724
Primitive shell pairs kept                  ...      1991
          la=0 lb=0:    203 shell pairs
          la=1 lb=0:    159 shell pairs
          la=1 lb=1:     36 shell pairs

Calculating one electron integrals          ... done (  0.0 sec)
Calculating RI/J V-Matrix + Cholesky decomp.... done (  0.1 sec)
Calculating Nuclear repulsion               ... done (  0.0 sec) ENN=    102.267675969781 Eh

SHARK setup successfully completed in   1.0 seconds

Maximum memory used throughout the entire GTOINT-calculation: 8.3 MB
-------------------------------------------------------------------------------
                                 ORCA SCF
-------------------------------------------------------------------------------

------------
SCF SETTINGS
------------
Hamiltonian:
 Density Functional     Method          .... DFT(GTOs)
 Exchange Functional    Exchange        .... B88
   X-Alpha parameter    XAlpha          ....  0.666667
   Becke's b parameter  XBeta           ....  0.004200
 Correlation Functional Correlation     .... LYP
 LDA part of GGA corr.  LDAOpt          .... VWN-5
 Gradients option       PostSCFGGA      .... off
 Hybrid DFT is turned on
   Fraction HF Exchange ScalHFX         ....  0.200000
   Scaling of DF-GGA-X  ScalDFX         ....  0.720000
   Scaling of DF-GGA-C  ScalDFC         ....  0.810000
   Scaling of DF-LDA-C  ScalLDAC        ....  1.000000
   Perturbative correction              ....  0.000000
   Density functional embedding theory  .... OFF
   NL short-range parameter             ....  4.800000
 RI-approximation to the Coulomb term is turned on
   Number of AuxJ basis functions       .... 240
   RIJ-COSX (HFX calculated with COS-X)).... on


General Settings:
 Integral files         IntName         .... acrolien.1095
 Hartree-Fock type      HFTyp           .... RHF
 Total Charge           Charge          ....    0
 Multiplicity           Mult            ....    1
 Number of Electrons    NEL             ....   30
 Basis Dimension        Dim             ....   44
 Nuclear Repulsion      ENuc            ....    102.2676759698 Eh

Convergence Acceleration:
 DIIS                   CNVDIIS         .... on
   Start iteration      DIISMaxIt       ....    12
   Startup error        DIISStart       ....  0.200000
   # of expansion vecs  DIISMaxEq       ....     5
   Bias factor          DIISBfac        ....   1.050
   Max. coefficient     DIISMaxC        ....  10.000
 Trust-Rad. Augm. Hess. CNVTRAH         .... auto
   Auto Start mean grad. ratio tolernc. ....  1.125000
   Auto Start start iteration           ....    20
   Auto Start num. interpolation iter.  ....    10
   Max. Number of Micro iterations      ....    16
   Max. Number of Macro iterations      .... Maxiter - #DIIS iter
   Number of Davidson start vectors     ....     2
   Converg. threshold I  (grad. norm)   ....   1.000e-05
   Converg. threshold II (energy diff.) ....   1.000e-08
   Grad. Scal. Fac. for Micro threshold ....   0.100
   Minimum threshold for Micro iter.    ....   0.010
   NR start threshold (gradient norm)   ....   0.001
   Initial trust radius                 ....   0.400
   Minimum AH scaling param. (alpha)    ....   1.000
   Maximum AH scaling param. (alpha)    .... 1000.000
   Orbital update algorithm             .... Taylor
   White noise on init. David. guess    .... on
   Maximum white noise                  ....   0.010
   Quad. conv. algorithm                .... NR
 SOSCF                  CNVSOSCF        .... on
   Start iteration      SOSCFMaxIt      ....   150
   Startup grad/error   SOSCFStart      ....  0.003300
 Level Shifting         CNVShift        .... on
   Level shift para.    LevelShift      ....    0.2500
   Turn off err/grad.   ShiftErr        ....    0.0010
 Zerner damping         CNVZerner       .... off
 Static damping         CNVDamp         .... on
   Fraction old density DampFac         ....    0.7000
   Max. Damping (<1)    DampMax         ....    0.9800
   Min. Damping (>=0)   DampMin         ....    0.0000
   Turn off err/grad.   DampErr         ....    0.1000
 Fernandez-Rico         CNVRico         .... off

SCF Procedure:
 Maximum # iterations   MaxIter         ....   500
 SCF integral mode      SCFMode         .... Direct
   Integral package                     .... SHARK and LIBINT hybrid scheme
 Reset frequency        DirectResetFreq ....    20
 Integral Threshold     Thresh          ....  2.500e-11 Eh
 Primitive CutOff       TCut            ....  2.500e-12 Eh

Convergence Tolerance:
 Convergence Check Mode ConvCheckMode   .... Total+1el-Energy
 Convergence forced     ConvForced      .... 1
 Energy Change          TolE            ....  1.000e-08 Eh
 1-El. energy change                    ....  1.000e-05 Eh
 Orbital Gradient       TolG            ....  1.000e-05
 Orbital Rotation angle TolX            ....  1.000e-05
 DIIS Error             TolErr          ....  5.000e-07


Diagonalization of the overlap matrix:
Smallest eigenvalue                        ... 5.355e-03
Time for diagonalization                   ...    0.059 sec
Threshold for overlap eigenvalues          ... 1.000e-08
Number of eigenvalues below threshold      ... 0
Time for construction of square roots      ...    0.086 sec
Total time needed                          ...    0.144 sec

Time for model grid setup =    0.092 sec

------------------------------
INITIAL GUESS: MODEL POTENTIAL
------------------------------
Loading Hartree-Fock densities                     ... done
Calculating cut-offs                               ... done
Initializing the effective Hamiltonian             ... done
Setting up the integral package (SHARK)            ... done
Starting the Coulomb interaction                   ... done (   0.7 sec)
Reading the grid                                   ... done
Mapping shells                                     ... done
Starting the XC term evaluation                    ... done (   0.0 sec)
  promolecular density results
     # of electrons  =     29.997883473
     EX              =    -24.730020728
     EC              =     -0.995477411
     EX+EC           =    -25.725498139
Transforming the Hamiltonian                       ... done (   0.4 sec)
Diagonalizing the Hamiltonian                      ... done (   0.0 sec)
Back transforming the eigenvectors                 ... done (   0.0 sec)
Now organizing SCF variables                       ... done
                      ------------------
                      INITIAL GUESS DONE (   1.5 sec)
                      ------------------
-------------------
DFT GRID GENERATION
-------------------

General Integration Accuracy     IntAcc      ... 4.388
Radial Grid Type                 RadialGrid  ... OptM3 with GC (2021)
Angular Grid (max. ang.)         AngularGrid ... 4 (Lebedev-302)
Angular grid pruning method      GridPruning ... 4 (adaptive)
Weight generation scheme         WeightScheme... Becke
Basis function cutoff            BFCut       ... 1.0000e-11
Integration weight cutoff        WCut        ... 1.0000e-14
Angular grids for H and He will be reduced by one unit
Partially contracted basis set               ... off
Rotationally invariant grid construction     ... off

Total number of grid points                  ...    37400
Total number of batches                      ...      590
Average number of points per batch           ...       63
Average number of grid points per atom       ...     4675
Time for grid setup =    0.247 sec

--------------------
COSX GRID GENERATION
--------------------

GRIDX 1
-------
General Integration Accuracy     IntAcc      ... 3.816
Radial Grid Type                 RadialGrid  ... OptM3 with GC (2021)
Angular Grid (max. ang.)         AngularGrid ... 1 (Lebedev-50)
Angular grid pruning method      GridPruning ... 4 (adaptive)
Weight generation scheme         WeightScheme... Becke
Basis function cutoff            BFCut       ... 1.0000e-11
Integration weight cutoff        WCut        ... 1.0000e-14
Angular grids for H and He will be reduced by one unit
Partially contracted basis set               ... on
Rotationally invariant grid construction     ... off

Total number of grid points                  ...     4801
Total number of batches                      ...       79
Average number of points per batch           ...       60
Average number of grid points per atom       ...      600
UseSFitting                                  ... on

GRIDX 2
-------
General Integration Accuracy     IntAcc      ... 4.020
Radial Grid Type                 RadialGrid  ... OptM3 with GC (2021)
Angular Grid (max. ang.)         AngularGrid ... 2 (Lebedev-110)
Angular grid pruning method      GridPruning ... 4 (adaptive)
Weight generation scheme         WeightScheme... Becke
Basis function cutoff            BFCut       ... 1.0000e-11
Integration weight cutoff        WCut        ... 1.0000e-14
Angular grids for H and He will be reduced by one unit
Partially contracted basis set               ... on
Rotationally invariant grid construction     ... off

Total number of grid points                  ...    10552
Total number of batches                      ...      170
Average number of points per batch           ...       62
Average number of grid points per atom       ...     1319
UseSFitting                                  ... on

GRIDX 3
-------
General Integration Accuracy     IntAcc      ... 4.338
Radial Grid Type                 RadialGrid  ... OptM3 with GC (2021)
Angular Grid (max. ang.)         AngularGrid ... 3 (Lebedev-194)
Angular grid pruning method      GridPruning ... 4 (adaptive)
Weight generation scheme         WeightScheme... Becke
Basis function cutoff            BFCut       ... 1.0000e-11
Integration weight cutoff        WCut        ... 1.0000e-14
Angular grids for H and He will be reduced by one unit
Partially contracted basis set               ... on
Rotationally invariant grid construction     ... off

Total number of grid points                  ...    23320
Total number of batches                      ...      369
Average number of points per batch           ...       63
Average number of grid points per atom       ...     2915
UseSFitting                                  ... on

Time for X-Grid setup             =    1.303 sec

--------------
SCF ITERATIONS
--------------
ITER       Energy         Delta-E        Max-DP      RMS-DP      [F,P]     Damp
               ***  Starting incremental Fock matrix formation  ***
  0   -191.5898128787   0.000000000000 0.14509079  0.00900966  0.2545833 0.7000
  1   -191.6595291442  -0.069716265509 0.06497057  0.00492669  0.0789132 0.7000
                               ***Turning on DIIS***
  2   -191.6801017579  -0.020572613700 0.05346939  0.00594062  0.0337029 0.0000
  3   -191.7234700653  -0.043368307396 0.05125311  0.00379597  0.0315061 0.0000
  4   -191.7280300247  -0.004559959385 0.01435289  0.00127473  0.0285964 0.0000
  5   -191.7296611601  -0.001631135348 0.00500741  0.00039615  0.0056648 0.0000
                      *** Initiating the SOSCF procedure ***
                           *** Shutting down DIIS ***
                      *** Re-Reading the Fockian *** 
                      *** Removing any level shift *** 
ITER      Energy       Delta-E        Grad      Rot      Max-DP    RMS-DP
  6   -191.72973250  -0.0000713396  0.000503  0.000503  0.001001  0.000104
               *** Restarting incremental Fock matrix formation ***
  7   -191.72972917   0.0000033290  0.000200  0.000940  0.000707  0.000072
  8   -191.72972884   0.0000003276  0.000310  0.000454  0.000416  0.000040
  9   -191.72972989  -0.0000010489  0.000051  0.000160  0.000262  0.000018
 10   -191.72972984   0.0000000509  0.000080  0.000103  0.000200  0.000012
 11   -191.72972992  -0.0000000764  0.000025  0.000054  0.000071  0.000006
 12   -191.72972991   0.0000000066  0.000028  0.000029  0.000041  0.000004
                  ***Gradient check signals convergence***
              ***Rediagonalizing the Fockian in SOSCF/NRSCF***

               *****************************************************
               *                     SUCCESS                       *
               *           SCF CONVERGED AFTER  13 CYCLES          *
               *****************************************************

Old exchange energy                            =     -5.014408465 Eh
New exchange energy                            =     -5.014410754 Eh
Exchange energy change after final integration =     -0.000002289 Eh
Total energy after final integration           =   -191.729732212 Eh
Final COS-X integration done in                =     0.800 sec

----------------
TOTAL SCF ENERGY
----------------

Total Energy       :         -191.72973221 Eh           -5217.23125 eV

Components:
Nuclear Repulsion  :          102.26767597 Eh            2782.84494 eV
Electronic Energy  :         -293.99740818 Eh           -8000.07619 eV
One Electron Energy:         -461.57870044 Eh          -12560.19499 eV
Two Electron Energy:          167.58129226 Eh            4560.11879 eV
Max COSX asymmetry :            0.00000185 Eh               0.00005 eV

Virial components:
Potential Energy   :         -382.49597074 Eh          -10408.24451 eV
Kinetic Energy     :          190.76623853 Eh            5191.01326 eV
Virial Ratio       :            2.00505065


DFT components:
N(Alpha)           :       14.999997165877 electrons
N(Beta)            :       14.999997165877 electrons
N(Total)           :       29.999994331753 electrons
E(X)               :      -19.969396425410 Eh       
E(C)               :       -1.182504791173 Eh       
E(XC)              :      -21.151901216583 Eh       
DFET-embed. en.    :        0.000000000000 Eh       

---------------
SCF CONVERGENCE
---------------

  Last Energy change         ...   -1.2406e-08  Tolerance :   1.0000e-08
  Last MAX-Density change    ...    1.3323e-15  Tolerance :   1.0000e-07
  Last RMS-Density change    ...    9.3739e-17  Tolerance :   5.0000e-09
  Last Orbital Gradient      ...    4.2852e-07  Tolerance :   1.0000e-05
  Last Orbital Rotation      ...    9.5358e-07  Tolerance :   1.0000e-05

             **** THE GBW FILE WAS UPDATED (acrolien.1095.gbw) ****
             **** DENSITY acrolien.1095.scfp WAS UPDATED ****
             **** ENERGY FILE WAS UPDATED (acrolien.1095.en.tmp) ****
             **** THE GBW FILE WAS UPDATED (acrolien.1095.gbw) ****
             **** DENSITY acrolien.1095.scfp WAS UPDATED ****
----------------
ORBITAL ENERGIES
----------------

  NO   OCC          E(Eh)            E(eV) 
   0   2.0000     -19.146188      -520.9943 
   1   2.0000     -10.281487      -279.7735 
   2   2.0000     -10.212401      -277.8936 
   3   2.0000     -10.204850      -277.6881 
   4   2.0000      -1.012139       -27.5417 
   5   2.0000      -0.823266       -22.4022 
   6   2.0000      -0.660945       -17.9852 
   7   2.0000      -0.582300       -15.8452 
   8   2.0000      -0.491514       -13.3748 
   9   2.0000      -0.467022       -12.7083 
  10   2.0000      -0.410329       -11.1656 
  11   2.0000      -0.397791       -10.8244 
  12   2.0000      -0.382719       -10.4143 
  13   2.0000      -0.290440        -7.9033 
  14   2.0000      -0.253900        -6.9090 
  15   0.0000      -0.078100        -2.1252 
  16   0.0000       0.046338         1.2609 
  17   0.0000       0.095178         2.5899 
  18   0.0000       0.110543         3.0080 
  19   0.0000       0.153833         4.1860 
  20   0.0000       0.202258         5.5037 
  21   0.0000       0.248964         6.7746 
  22   0.0000       0.301129         8.1941 
  23   0.0000       0.348821         9.4919 
  24   0.0000       0.507633        13.8134 
  25   0.0000       0.536550        14.6003 
  26   0.0000       0.589309        16.0359 
  27   0.0000       0.596811        16.2401 
  28   0.0000       0.629495        17.1294 
  29   0.0000       0.635145        17.2832 
  30   0.0000       0.644722        17.5438 
  31   0.0000       0.701776        19.0963 
  32   0.0000       0.813614        22.1396 
  33   0.0000       0.859749        23.3950 
  34   0.0000       0.903468        24.5846 
  35   0.0000       0.934223        25.4215 
  36   0.0000       0.960490        26.1363 
  37   0.0000       0.983440        26.7608 
  38   0.0000       1.002136        27.2695 
  39   0.0000       1.096363        29.8336 
  40   0.0000       1.170084        31.8396 
  41   0.0000       1.194264        32.4976 
  42   0.0000       1.326769        36.1032 
  43   0.0000       1.742851        47.4254 

                    ********************************
                    * MULLIKEN POPULATION ANALYSIS *
                    ********************************

-----------------------
MULLIKEN ATOMIC CHARGES
-----------------------
   0 C :    0.180860
   1 O :   -0.429734
   2 C :   -0.077668
   3 C :   -0.257376
   4 H :    0.122470
   5 H :    0.160728
   6 H :    0.157095
   7 H :    0.143625
Sum of atomic charges:    0.0000000

--------------------------------
MULLIKEN REDUCED ORBITAL CHARGES
--------------------------------
  0 C s       :     3.200693  s :     3.200693
      pz      :     0.889057  p :     2.618447
      px      :     0.830132
      py      :     0.899258
  1 O s       :     3.984636  s :     3.984636
      pz      :     1.478104  p :     4.445098
      px      :     1.429884
      py      :     1.537109
  2 C s       :     3.193802  s :     3.193802
      pz      :     0.974465  p :     2.883866
      px      :     0.937283
      py      :     0.972118
  3 C s       :     3.279464  s :     3.279464
      pz      :     0.976967  p :     2.977912
      px      :     1.031813
      py      :     0.969132
  4 H s       :     0.877530  s :     0.877530
  5 H s       :     0.839272  s :     0.839272
  6 H s       :     0.842905  s :     0.842905
  7 H s       :     0.856375  s :     0.856375


                     *******************************
                     * LOEWDIN POPULATION ANALYSIS *
                     *******************************

----------------------
LOEWDIN ATOMIC CHARGES
----------------------
   0 C :    0.116770
   1 O :   -0.278545
   2 C :   -0.150664
   3 C :   -0.171128
   4 H :    0.089609
   5 H :    0.133924
   6 H :    0.130881
   7 H :    0.129154

-------------------------------
LOEWDIN REDUCED ORBITAL CHARGES
-------------------------------
  0 C s       :     2.994543  s :     2.994543
      pz      :     0.981535  p :     2.888687
      px      :     0.972102
      py      :     0.935050
  1 O s       :     3.690738  s :     3.690738
      pz      :     1.534378  p :     4.587807
      px      :     1.498476
      py      :     1.554953
  2 C s       :     2.967043  s :     2.967043
      pz      :     1.075084  p :     3.183621
      px      :     1.076805
      py      :     1.031732
  3 C s       :     2.998915  s :     2.998915
      pz      :     1.055821  p :     3.172213
      px      :     1.115590
      py      :     1.000802
  4 H s       :     0.910391  s :     0.910391
  5 H s       :     0.866076  s :     0.866076
  6 H s       :     0.869119  s :     0.869119
  7 H s       :     0.870846  s :     0.870846


                      *****************************
                      * MAYER POPULATION ANALYSIS *
                      *****************************

  NA   - Mulliken gross atomic population
  ZA   - Total nuclear charge
  QA   - Mulliken gross atomic charge
  VA   - Mayer's total valence
  BVA  - Mayer's bonded valence
  FA   - Mayer's free valence

  ATOM       NA         ZA         QA         VA         BVA        FA
  0 C      5.8191     6.0000     0.1809     3.7513     3.7513     0.0000
  1 O      8.4297     8.0000    -0.4297     1.9581     1.9581     0.0000
  2 C      6.0777     6.0000    -0.0777     3.7604     3.7604     0.0000
  3 C      6.2574     6.0000    -0.2574     3.8438     3.8438     0.0000
  4 H      0.8775     1.0000     0.1225     0.9324     0.9324     0.0000
  5 H      0.8393     1.0000     0.1607     0.9339     0.9339     0.0000
  6 H      0.8429     1.0000     0.1571     0.9433     0.9433    -0.0000
  7 H      0.8564     1.0000     0.1436     0.9447     0.9447     0.0000

  Mayer bond orders larger than 0.100000
B(  0-C ,  1-O ) :   1.7671 B(  0-C ,  2-C ) :   1.0495 B(  0-C ,  4-H ) :   0.8853 
B(  1-O ,  3-C ) :   0.1267 B(  2-C ,  3-C ) :   1.8004 B(  2-C ,  5-H ) :   0.9361 
B(  3-C ,  6-H ) :   0.9446 B(  3-C ,  7-H ) :   0.9446 

-------
TIMINGS
-------

Total SCF time: 0 days 0 hours 0 min 54 sec 

Total time                  ....      54.524 sec
Sum of individual times     ....      47.075 sec  ( 86.3%)

Fock matrix formation       ....      44.055 sec  ( 80.8%)
  Split-RI-J                ....       0.615 sec  (  1.4% of F)
  Chain of spheres X        ....       4.547 sec  ( 10.3% of F)
  XC integration            ....      16.930 sec  ( 38.4% of F)
    Basis function eval.    ....       0.995 sec  (  5.9% of XC)
    Density eval.           ....       0.399 sec  (  2.4% of XC)
    XC-Functional eval.     ....       0.648 sec  (  3.8% of XC)
    XC-Potential eval.      ....       0.248 sec  (  1.5% of XC)
Diagonalization             ....       0.003 sec  (  0.0%)
Density matrix formation    ....       0.000 sec  (  0.0%)
Population analysis         ....       0.002 sec  (  0.0%)
Initial guess               ....       1.369 sec  (  2.5%)
Orbital Transformation      ....       0.000 sec  (  0.0%)
Orbital Orthonormalization  ....       0.000 sec  (  0.0%)
DIIS solution               ....       0.002 sec  (  0.0%)
SOSCF solution              ....       0.002 sec  (  0.0%)
Grid generation             ....       1.641 sec  (  3.0%)

Maximum memory used throughout the entire SCF-calculation: 46.7 MB
------------------------------------------------------------------------------
                        ORCA TD-DFT/TDA CALCULATION
------------------------------------------------------------------------------

Input orbitals are from        ... acrolien.1095.gbw
CI-vector output               ... acrolien.1095.cis
Tamm-Dancoff approximation     ... operative
CIS-Integral strategy          ... AO-integrals
Integral handling              ... AO integral Direct
Max. core memory used          ... 512 MB
Reference state                ... RHF
Generation of triplets         ... off
Follow IRoot                   ... off
Number of operators            ... 1
Orbital ranges used for CIS calculation:
 Operator 0:  Orbitals   4... 14  to  15... 43
XAS localization array:
 Operator 0:  Orbitals  -1... -1

-------------------
XC-INTEGRATION GRID
-------------------

General Integration Accuracy     IntAcc      ... 3.467
Radial Grid Type                 RadialGrid  ... OptM3 with GC (2021)
Angular Grid (max. ang.)         AngularGrid ... 1 (Lebedev-50)
Angular grid pruning method      GridPruning ... 4 (adaptive)
Weight generation scheme         WeightScheme... Becke
Basis function cutoff            BFCut       ... 1.0000e-11
Integration weight cutoff        WCut        ... 1.0000e-14
Angular grids for H and He will be reduced by one unit
Partially contracted basis set               ... off
Rotationally invariant grid construction     ... off

Total number of grid points                  ...     5494
Total number of batches                      ...       91
Average number of points per batch           ...       60
Average number of grid points per atom       ...      687

---------------------
COSX-INTEGRATION GRID
---------------------

General Integration Accuracy     IntAcc      ... 3.067
Radial Grid Type                 RadialGrid  ... OptM3 with GC (2021)
Angular Grid (max. ang.)         AngularGrid ... 1 (Lebedev-50)
Angular grid pruning method      GridPruning ... 4 (adaptive)
Weight generation scheme         WeightScheme... Becke
Basis function cutoff            BFCut       ... 1.0000e-11
Integration weight cutoff        WCut        ... 1.0000e-14
Angular grids for H and He will be reduced by one unit
Partially contracted basis set               ... on
Rotationally invariant grid construction     ... off

Total number of grid points                  ...     2511
Total number of batches                      ...       45
Average number of points per batch           ...       55
Average number of grid points per atom       ...      314

---------------
TD-DFT XC SETUP
---------------

DFT calculation                         ... on
Name of the grid file                   ... acrolien.1095.grid_cis.tmp
Exchange functional (TD-DFT)            ... B88
   X-Alpha parameter    XAlpha (TD-DFT) ...  0.666667
   Becke's b parameter  XBeta (TD-DFT)  ...  0.004200
Correlation functional (TD-DFT)         ... LYP
 LDA part of GGA corr.  LDAOpt (TD-DFT) ... VWN-5
Hybrid DFT                              ... on
   Exchange mixing (TD-DFT)             ...  0.200
   GGA exch. scaling (TD-DFT)           ...  0.720
   GGA corr. scaling (TD-DFT)           ...  0.810

Building densities             ... done
Calculating rho(r) on the grid ... done
Building xc-kernel on the grid ... done
                    *** TD-DFT CALCULATION INITIALIZED ***

------------------------
DAVIDSON-DIAGONALIZATION
------------------------

Dimension of the eigenvalue problem            ...    319
Number of roots to be determined               ...      1
Maximum size of the expansion space            ...     10
Maximum number of iterations                   ...    100
Convergence tolerance for the residual         ...    2.500e-07
Convergence tolerance for the energies         ...    2.500e-07
Orthogonality tolerance                        ...    1.000e-14
Level Shift                                    ...    0.000e+00
Constructing the preconditioner                ... o.k.
Building the initial guess                     ... o.k.
Number of trial vectors determined             ...     10


                       ****Iteration    0****

   Memory handling for direct AO based CIS:
   Memory per vector needed      ...     1 MB
   Memory needed                 ...     0 MB
   Memory available              ...   512 MB
   Number of vectors per batch   ...   512
   Number of batches             ...     1
   Time for densities:            0.000
   Time for RI-J (Direct):        0.043
   Time for K (COSX):             0.116
   Time for XC-Integration:       0.038
   Time for Sigma-Completion:     0.000
   Size of expansion space: 3
   Lowest Energy          :     0.114932482487
   Maximum Energy change  :     0.114932482487 (vector 0)
   Maximum residual norm  :     0.000459103935

                       ****Iteration    1****
   Time for densities:            0.000
   Time for RI-J (Direct):        0.034
   Time for K (COSX):             0.106
   Time for XC-Integration:       0.022
   Time for Sigma-Completion:     0.000
   Size of expansion space: 4
   Lowest Energy          :     0.114317425013
   Maximum Energy change  :     0.000615057474 (vector 0)
   Maximum residual norm  :     0.000007121929

                       ****Iteration    2****
   Time for densities:            0.000
   Time for RI-J (Direct):        0.034
   Time for K (COSX):             0.106
   Time for XC-Integration:       0.022
   Time for Sigma-Completion:     0.000
   Size of expansion space: 5
   Lowest Energy          :     0.114309763717
   Maximum Energy change  :     0.000007661296 (vector 0)
   Maximum residual norm  :     0.000001226735

                       ****Iteration    3****
   Time for densities:            0.000
   Time for RI-J (Direct):        0.034
   Time for K (COSX):             0.107
   Time for XC-Integration:       0.022
   Time for Sigma-Completion:     0.000
   Size of expansion space: 6
   Lowest Energy          :     0.114308108603
   Maximum Energy change  :     0.000001655115 (vector 0)
   Maximum residual norm  :     0.000000074379

      *** CONVERGENCE OF RESIDUAL NORM REACHED ***

Storing the converged CI vectors               ... acrolien.1095.cis1

                 *** DAVIDSON DONE ***

Total time for solving the CIS problem:     1.900sec

------------------------------------
TD-DFT/TDA EXCITED STATES (SINGLETS)
------------------------------------

the weight of the individual excitations are printed if larger than 1.0e-02

STATE  1:  E=   0.114308 au      3.110 eV    25087.7 cm**-1 <S**2> =   0.000000
    14a ->  15a  :     0.982070 (c=  0.99099464)
    14a ->  16a  :     0.016236 (c=  0.12742003)


-----------------------------
TD-DFT/TDA-EXCITATION SPECTRA
-----------------------------

Center of mass = ( -1.0685, -0.1147,  0.4517)
Calculating the Dipole integrals                  ... done
Transforming integrals                            ... done
Calculating the Linear Momentum integrals         ... done
Transforming integrals                            ... done
Calculating angular momentum integrals            ... done
Transforming integrals                            ... done

-----------------------------------------------------------------------------
         ABSORPTION SPECTRUM VIA TRANSITION ELECTRIC DIPOLE MOMENTS
-----------------------------------------------------------------------------
State   Energy    Wavelength  fosc         T2        TX        TY        TZ  
        (cm-1)      (nm)                 (au**2)    (au)      (au)      (au) 
-----------------------------------------------------------------------------
   1   25087.7    398.6   0.000068990   0.00091   0.02733  -0.01154   0.00503

-----------------------------------------------------------------------------
         ABSORPTION SPECTRUM VIA TRANSITION VELOCITY DIPOLE MOMENTS
-----------------------------------------------------------------------------
State   Energy    Wavelength   fosc        P2         PX        PY        PZ  
        (cm-1)      (nm)                 (au**2)     (au)      (au)      (au) 
-----------------------------------------------------------------------------
   1   25087.7    398.6   0.000176440   0.00003   0.00190   0.00229  -0.00463

-------------------------------------------------------------------
                             CD SPECTRUM
-------------------------------------------------------------------
State  Energy     Wavelength     R         MX        MY        MZ   
       (cm-1)       (nm)     (1e40*cgs)   (au)      (au)      (au)  
-------------------------------------------------------------------
   1   25087.7    398.6     -4.07869  -0.36427  -0.02130   0.21031

-------------------------------------------------------------------
         CD SPECTRUM VIA TRANSITION VELOCITY DIPOLE MOMENTS        
-------------------------------------------------------------------
State  Energy     Wavelength     R         MX        MY        MZ   
       (cm-1)       (nm)     (1e40*cgs)   (au)      (au)      (au)  
-------------------------------------------------------------------
   1   25087.7    398.6     -7.06883  -0.36427  -0.02130   0.21031

Total run time:        3.682 sec

           *** ORCA-CIS/TD-DFT FINISHED WITHOUT ERROR ***

Maximum memory used throughout the entire CIS-calculation: 42.9 MB

-----------------------
CIS/TD-DFT TOTAL ENERGY
-----------------------

    E(SCF)  =   -191.729732212 Eh
    DE(CIS) =      0.114308109 Eh (Root  1)
    ----------------------------- ---------
    E(tot)  =   -191.615424104 Eh


-------------------------   --------------------
FINAL SINGLE POINT ENERGY      -191.615424103644
-------------------------   --------------------


                            ***************************************
                            *     ORCA property calculations      *
                            ***************************************

                                    ---------------------
                                    Active property flags
                                    ---------------------
   (+) Dipole Moment


------------------------------------------------------------------------------
                       ORCA ELECTRIC PROPERTIES CALCULATION
------------------------------------------------------------------------------

Dipole Moment Calculation                       ... on
Quadrupole Moment Calculation                   ... off
Polarizability Calculation                      ... off
GBWName                                         ... acrolien.1095.gbw
Electron density                                ... acrolien.1095.scfp
The origin for moment calculation is the CENTER OF MASS  = (-1.068526, -0.114654  0.451735)

-------------
DIPOLE MOMENT
-------------
                                X             Y             Z
Electronic contribution:     -2.74217      -0.25371       1.13566
Nuclear contribution   :      4.06607       0.41582      -1.75428
                        -----------------------------------------
Total Dipole Moment    :      1.32390       0.16211      -0.61862
                        -----------------------------------------
Magnitude (a.u.)       :      1.47026
Magnitude (Debye)      :      3.73712



--------------------
Rotational spectrum 
--------------------
 
Rotational constants in cm-1:     1.519184     0.155768     0.141553 
Rotational constants in MHz : 45543.989659  4669.801485  4243.657487 

 Dipole components along the rotational axes: 
x,y,z [a.u.] :    -1.448869     0.242998     0.058394 
x,y,z [Debye]:    -3.682732     0.617651     0.148425 

 

Timings for individual modules:

Sum of individual times         ...       60.145 sec (=   1.002 min)
GTO integral calculation        ...        1.308 sec (=   0.022 min)   2.2 %
SCF iterations                  ...       55.147 sec (=   0.919 min)  91.7 %
CIS module                      ...        3.690 sec (=   0.062 min)   6.1 %
                             ****ORCA TERMINATED NORMALLY****
TOTAL RUN TIME: 0 days 0 hours 1 minutes 1 seconds 608 msec
