
                                 *****************
                                 * O   R   C   A *
                                 *****************

                                            #,                                       
                                            ###                                      
                                            ####                                     
                                            #####                                    
                                            ######                                   
                                           ########,                                 
                                     ,,################,,,,,                         
                               ,,#################################,,                 
                          ,,##########################################,,             
                       ,#########################################, ''#####,          
                    ,#############################################,,   '####,        
                  ,##################################################,,,,####,       
                ,###########''''           ''''###############################       
              ,#####''   ,,,,##########,,,,          '''####'''          '####       
            ,##' ,,,,###########################,,,                        '##       
           ' ,,###''''                  '''############,,,                           
         ,,##''                                '''############,,,,        ,,,,,,###''
      ,#''                                            '''#######################'''  
     '                                                          ''''####''''         
             ,#######,   #######,   ,#######,      ##                                
            ,#'     '#,  ##    ##  ,#'     '#,    #''#        ######   ,####,        
            ##       ##  ##   ,#'  ##            #'  '#       #        #'  '#        
            ##       ##  #######   ##           ,######,      #####,   #    #        
            '#,     ,#'  ##    ##  '#,     ,#' ,#      #,         ##   #,  ,#        
             '#######'   ##     ##  '#######'  #'      '#     #####' # '####'        



                  #######################################################
                  #                        -***-                        #
                  #          Department of theory and spectroscopy      #
                  #    Directorship and core code : Frank Neese         #
                  #        Max Planck Institute fuer Kohlenforschung    #
                  #                Kaiser Wilhelm Platz 1               #
                  #                 D-45470 Muelheim/Ruhr               #
                  #                      Germany                        #
                  #                                                     #
                  #                  All rights reserved                #
                  #                        -***-                        #
                  #######################################################


                         Program Version 5.0.3 -  RELEASE  -


 With contributions from (in alphabetic order):
   Daniel Aravena         : Magnetic Suceptibility
   Michael Atanasov       : Ab Initio Ligand Field Theory (pilot matlab implementation)
   Alexander A. Auer      : GIAO ZORA, VPT2 properties, NMR spectrum
   Ute Becker             : Parallelization
   Giovanni Bistoni       : ED, misc. LED, open-shell LED, HFLD
   Martin Brehm           : Molecular dynamics
   Dmytro Bykov           : SCF Hessian
   Vijay G. Chilkuri      : MRCI spin determinant printing, contributions to CSF-ICE
   Dipayan Datta          : RHF DLPNO-CCSD density
   Achintya Kumar Dutta   : EOM-CC, STEOM-CC
   Dmitry Ganyushin       : Spin-Orbit,Spin-Spin,Magnetic field MRCI
   Miquel Garcia          : C-PCM and meta-GGA Hessian, CC/C-PCM, Gaussian charge scheme
   Yang Guo               : DLPNO-NEVPT2, F12-NEVPT2, CIM, IAO-localization
   Andreas Hansen         : Spin unrestricted coupled pair/coupled cluster methods
   Benjamin Helmich-Paris : MC-RPA, TRAH-SCF, COSX integrals
   Lee Huntington         : MR-EOM, pCC
   Robert Izsak           : Overlap fitted RIJCOSX, COSX-SCS-MP3, EOM
   Marcus Kettner         : VPT2
   Christian Kollmar      : KDIIS, OOCD, Brueckner-CCSD(T), CCSD density, CASPT2, CASPT2-K
   Simone Kossmann        : Meta GGA functionals, TD-DFT gradient, OOMP2, MP2 Hessian
   Martin Krupicka        : Initial AUTO-CI
   Lucas Lang             : DCDCAS
   Marvin Lechner         : AUTO-CI (C++ implementation), FIC-MRCC
   Dagmar Lenk            : GEPOL surface, SMD
   Dimitrios Liakos       : Extrapolation schemes; Compound Job, initial MDCI parallelization
   Dimitrios Manganas     : Further ROCIS development; embedding schemes
   Dimitrios Pantazis     : SARC Basis sets
   Anastasios Papadopoulos: AUTO-CI, single reference methods and gradients
   Taras Petrenko         : DFT Hessian,TD-DFT gradient, ASA, ECA, R-Raman, ABS, FL, XAS/XES, NRVS
   Peter Pinski           : DLPNO-MP2, DLPNO-MP2 Gradient
   Christoph Reimann      : Effective Core Potentials
   Marius Retegan         : Local ZFS, SOC
   Christoph Riplinger    : Optimizer, TS searches, QM/MM, DLPNO-CCSD(T), (RO)-DLPNO pert. Triples
   Tobias Risthaus        : Range-separated hybrids, TD-DFT gradient, RPA, STAB
   Michael Roemelt        : Original ROCIS implementation
   Masaaki Saitow         : Open-shell DLPNO-CCSD energy and density
   Barbara Sandhoefer     : DKH picture change effects
   Avijit Sen             : IP-ROCIS
   Kantharuban Sivalingam : CASSCF convergence, NEVPT2, FIC-MRCI
   Bernardo de Souza      : ESD, SOC TD-DFT
   Georgi Stoychev        : AutoAux, RI-MP2 NMR, DLPNO-MP2 response
   Willem Van den Heuvel  : Paramagnetic NMR
   Boris Wezisla          : Elementary symmetry handling
   Frank Wennmohs         : Technical directorship


 We gratefully acknowledge several colleagues who have allowed us to
 interface, adapt or use parts of their codes:
   Stefan Grimme, W. Hujo, H. Kruse, P. Pracht,  : VdW corrections, initial TS optimization,
                  C. Bannwarth, S. Ehlert          DFT functionals, gCP, sTDA/sTD-DF
   Ed Valeev, F. Pavosevic, A. Kumar             : LibInt (2-el integral package), F12 methods
   Garnet Chan, S. Sharma, J. Yang, R. Olivares  : DMRG
   Ulf Ekstrom                                   : XCFun DFT Library
   Mihaly Kallay                                 : mrcc  (arbitrary order and MRCC methods)
   Jiri Pittner, Ondrej Demel                    : Mk-CCSD
   Frank Weinhold                                : gennbo (NPA and NBO analysis)
   Christopher J. Cramer and Donald G. Truhlar   : smd solvation model
   Lars Goerigk                                  : TD-DFT with DH, B97 family of functionals
   V. Asgeirsson, H. Jonsson                     : NEB implementation
   FAccTs GmbH                                   : IRC, NEB, NEB-TS, DLPNO-Multilevel, CI-OPT
                                                   MM, QMMM, 2- and 3-layer-ONIOM, Crystal-QMMM,
                                                   LR-CPCM, SF, NACMEs, symmetry and pop. for TD-DFT,
                                                   nearIR, NL-DFT gradient (VV10), updates on ESD,
                                                   ML-optimized integration grids
   S Lehtola, MJT Oliveira, MAL Marques          : LibXC Library
   Liviu Ungur et al                             : ANISO software


 Your calculation uses the libint2 library for the computation of 2-el integrals
 For citations please refer to: http://libint.valeyev.net

 Your ORCA version has been built with support for libXC version: 5.1.0
 For citations please refer to: https://tddft.org/programs/libxc/

 This ORCA versions uses:
   CBLAS   interface :  Fast vector & matrix operations
   LAPACKE interface :  Fast linear algebra routines
   SCALAPACK package :  Parallel linear algebra routines
   Shared memory     :  Shared parallel matrices
   BLAS/LAPACK       :  OpenBLAS 0.3.15  USE64BITINT DYNAMIC_ARCH NO_AFFINITY Haswell SINGLE_THREADED
        Core in use  :  Haswell
   Copyright (c) 2011-2014, The OpenBLAS Project


XCFun DFT library Copyright 2009-2010 Ulf Ekstrom and contributors.
See http://admol.org/xcfun for more information.
This is free software; see the source code for copying conditions.
There is ABSOLUTELY NO WARRANTY; not even for MERCHANTABILITY or FITNESS FOR A PARTICULAR PURPOSE.
For details see the documentation.
Scientific users of this library should cite U. Ekstrom, L. Visscher, R. Bast, A. J. Thorvaldsen and K. Ruud;
J.Chem.Theor.Comp. 2010, DOI: 10.1021/ct100117s
XCFun Version 0.99 

================================================================================

----- Orbital basis set information -----
Your calculation utilizes the basis: 6-31G
   H-He, Li-Ne : W. J. Hehre, R. Ditchfield and J.A. Pople, J. Chem. Phys. 56, 2257 (1972).
                 Note: He and Ne are unpublished basis sets taken from the Gaussian program.
                 Note: Li and B from J. D. Dill and J. A. Pople, J. Chem. Phys. 62, 2921 (1975).
   Na - Ar     : M. M. Francl, W. J. Pietro, W. J. Hehre, J. S. Binkley, M. S. Gordon, 
                 D. J. DeFrees and J. A. Pople, J. Chem. Phys. 77, 3654 (1982).
   K - Zn      : V. A. Rassolov, J. A. Pople, M. A. Ratner, and T. L. Windus, J. Chem. Phys. 109, 1223 (1998).

----- AuxJ basis set information -----
Your calculation utilizes the auxiliary basis: def2/J
   F. Weigend, Phys. Chem. Chem. Phys. 8, 1057 (2006).

================================================================================
                                        WARNINGS
                       Please study these warnings very carefully!
================================================================================

INFO   : Checking CIS options ...

INFO   : the flag for use of the SHARK integral package has been found!

================================================================================
                                       INPUT FILE
================================================================================
NAME = acrolien.56.com
|  1> ! RKS CAM-B3LYP 6-31G
|  2> !TightSCF
|  3> %scf
|  4>  ConvForced true
|  5>  convergence tight
|  6>  MaxIter 500
|  7> end
|  8>  
|  9> %tddft 
| 10>  nroots 1
| 11> end
| 12> 
| 13> # 	29263
| 14> * xyz 0 1
| 15> 		C   -0.620179  -0.459635   0.011307
| 16> 		O   -0.567608  -1.629983  -0.020457
| 17> 		C    0.643348   0.447303  -0.028599
| 18> 		C    1.860394  -0.127655   0.030384
| 19> 		H   -1.685819   0.015123   0.256709
| 20> 		H    0.419930   1.566722  -0.083322
| 21> 		H    1.927509  -1.316591   0.114969
| 22> 		H    2.868088   0.517719  -0.136360
| 23> *
| 24> 
| 25>                          ****END OF INPUT****
================================================================================

                       ****************************
                       * Single Point Calculation *
                       ****************************

---------------------------------
CARTESIAN COORDINATES (ANGSTROEM)
---------------------------------
  C     -0.620179   -0.459635    0.011307
  O     -0.567608   -1.629983   -0.020457
  C      0.643348    0.447303   -0.028599
  C      1.860394   -0.127655    0.030384
  H     -1.685819    0.015123    0.256709
  H      0.419930    1.566722   -0.083322
  H      1.927509   -1.316591    0.114969
  H      2.868088    0.517719   -0.136360

----------------------------
CARTESIAN COORDINATES (A.U.)
----------------------------
  NO LB      ZA    FRAG     MASS         X           Y           Z
   0 C     6.0000    0    12.011   -1.171968   -0.868584    0.021367
   1 O     8.0000    0    15.999   -1.072624   -3.080221   -0.038658
   2 C     6.0000    0    12.011    1.215752    0.845280   -0.054044
   3 C     6.0000    0    12.011    3.515635   -0.241233    0.057417
   4 H     1.0000    0     1.008   -3.185736    0.028578    0.485110
   5 H     1.0000    0     1.008    0.793553    2.960676   -0.157456
   6 H     1.0000    0     1.008    3.642464   -2.487996    0.217260
   7 H     1.0000    0     1.008    5.419901    0.978347   -0.257683

--------------------------------
INTERNAL COORDINATES (ANGSTROEM)
--------------------------------
 C      0   0   0     0.000000000000     0.00000000     0.00000000
 O      1   0   0     1.171958660893     0.00000000     0.00000000
 C      1   2   0     1.555837235834   123.02467109     0.00000000
 C      3   1   2     1.347314611429   118.92834757   353.50869061
 H      1   2   3     1.192143409900   116.31898841   189.72919866
 H      3   1   2     1.142807554671   114.42207287   174.84323025
 H      4   3   1     1.193829073840   118.61221579   359.80895446
 H      4   3   1     1.208204601484   121.29267868   172.21649059

---------------------------
INTERNAL COORDINATES (A.U.)
---------------------------
 C      0   0   0     0.000000000000     0.00000000     0.00000000
 O      1   0   0     2.214680909364     0.00000000     0.00000000
 C      1   2   0     2.940106284684   123.02467109     0.00000000
 C      3   1   2     2.546055631831   118.92834757   353.50869061
 H      1   2   3     2.252824557070   116.31898841   189.72919866
 H      3   1   2     2.159593302105   114.42207287   174.84323025
 H      4   3   1     2.256010000271   118.61221579   359.80895446
 H      4   3   1     2.283175810549   121.29267868   172.21649059

---------------------
BASIS SET INFORMATION
---------------------
There are 3 groups of distinct atoms

 Group   1 Type C   : 10s4p contracted to 3s2p pattern {631/31}
 Group   2 Type O   : 10s4p contracted to 3s2p pattern {631/31}
 Group   3 Type H   : 4s contracted to 2s pattern {31}

Atom   0C    basis set group =>   1
Atom   1O    basis set group =>   2
Atom   2C    basis set group =>   1
Atom   3C    basis set group =>   1
Atom   4H    basis set group =>   3
Atom   5H    basis set group =>   3
Atom   6H    basis set group =>   3
Atom   7H    basis set group =>   3
---------------------------------
AUXILIARY/J BASIS SET INFORMATION
---------------------------------
There are 3 groups of distinct atoms

 Group   1 Type C   : 12s5p4d2f1g contracted to 6s4p3d1f1g pattern {711111/2111/211/2/1}
 Group   2 Type O   : 12s5p4d2f1g contracted to 6s4p3d1f1g pattern {711111/2111/211/2/1}
 Group   3 Type H   : 5s2p1d contracted to 3s1p1d pattern {311/2/1}

Atom   0C    basis set group =>   1
Atom   1O    basis set group =>   2
Atom   2C    basis set group =>   1
Atom   3C    basis set group =>   1
Atom   4H    basis set group =>   3
Atom   5H    basis set group =>   3
Atom   6H    basis set group =>   3
Atom   7H    basis set group =>   3
------------------------------------------------------------------------------
                           ORCA GTO INTEGRAL CALCULATION
                           -- RI-GTO INTEGRALS CHOSEN --
------------------------------------------------------------------------------
------------------------------------------------------------------------------
                   ___                                                        
                  /   \      - P O W E R E D   B Y -                         
                 /     \                                                     
                 |  |  |   _    _      __       _____    __    __             
                 |  |  |  | |  | |    /  \     |  _  \  |  |  /  |          
                  \  \/   | |  | |   /    \    | | | |  |  | /  /          
                 / \  \   | |__| |  /  /\  \   | |_| |  |  |/  /          
                |  |  |   |  __  | /  /__\  \  |    /   |      \           
                |  |  |   | |  | | |   __   |  |    \   |  |\   \          
                \     /   | |  | | |  |  |  |  | |\  \  |  | \   \       
                 \___/    |_|  |_| |__|  |__|  |_| \__\ |__|  \__/        
                                                                              
                      - O R C A' S   B I G   F R I E N D -                    
                                      &                                       
                       - I N T E G R A L  F E E D E R -                       
                                                                              
 v1 FN, 2020, v2 2021                                                         
------------------------------------------------------------------------------


Reading SHARK input file acrolien.56.SHARKINP.tmp ... ok
----------------------
SHARK INTEGRAL PACKAGE
----------------------

Number of atoms                             ...      8
Number of basis functions                   ...     44
Number of shells                            ...     28
Maximum angular momentum                    ...      1
Integral batch strategy                     ... SHARK/LIBINT Hybrid
RI-J (if used) integral strategy            ... SPLIT-RIJ (Revised 2003 algorithm where possible)
Printlevel                                  ...      1
Contraction scheme used                     ... SEGMENTED contraction
Coulomb Range Separation                    ... NOT USED
Exchange Range Separation                   ... Long Range
   Mu parameter                             ...  0.330000
   Scaling (regular/separated)              ...  0.190000  0.460000
Finite Nucleus Model                        ... NOT USED
Auxiliary Coulomb fitting basis             ... AVAILABLE
   # of basis functions in Aux-J            ...    240
   # of shells in Aux-J                     ...     80
   Maximum angular momentum in Aux-J        ...      4
Auxiliary J/K fitting basis                 ... NOT available
Auxiliary Correlation fitting basis         ... NOT available
Auxiliary 'external' fitting basis          ... NOT available
Integral threshold                          ...     2.500000e-11
Primitive cut-off                           ...     2.500000e-12
Primitive pair pre-selection threshold      ...     2.500000e-12

Calculating pre-screening integrals         ... done (  0.0 sec) Dimension = 28
Organizing shell pair data                  ... done (  0.0 sec)
Shell pair information
Total number of shell pairs                 ...       406
Shell pairs after pre-screening             ...       402
Total number of primitive shell pairs       ...      2724
Primitive shell pairs kept                  ...      1997
          la=0 lb=0:    206 shell pairs
          la=1 lb=0:    160 shell pairs
          la=1 lb=1:     36 shell pairs

Calculating one electron integrals          ... done (  0.0 sec)
Calculating RI/J V-Matrix + Cholesky decomp.... done (  0.0 sec)
Calculating Nuclear repulsion               ... done (  0.0 sec) ENN=    102.999171410512 Eh

SHARK setup successfully completed in   0.3 seconds

Maximum memory used throughout the entire GTOINT-calculation: 8.3 MB
-------------------------------------------------------------------------------
                                 ORCA SCF
-------------------------------------------------------------------------------

------------
SCF SETTINGS
------------
Hamiltonian:
 Density Functional     Method          .... DFT(GTOs)
 Exchange Functional    Exchange        .... WB88
 Correlation Functional Correlation     .... LYP
 LDA part of GGA corr.  LDAOpt          .... VWN-5
 Gradients option       PostSCFGGA      .... off
 Hybrid DFT is turned on
   Fraction HF Exchange ScalHFX         ....  0.190000
   Scaling of DF-GGA-X  ScalDFX         ....  0.350000
   Scaling of DF-GGA-C  ScalDFC         ....  0.810000
   Scaling of DF-LDA-C  ScalLDAC        ....  1.000000
   Perturbative correction              ....  0.000000
   Density functional embedding theory  .... OFF
 Long-range corrected/Screened/Range-Separated Hybrid DFT is turned on
   Amount of maximum screened exact exchange              ....  0.460000
   Range separation parameter mu (erf(mu*r12)/r12)        ....  0.330000
 RI-approximation to the Coulomb term is turned on
   Number of AuxJ basis functions       .... 240
   RIJ-COSX (HFX calculated with COS-X)).... on


General Settings:
 Integral files         IntName         .... acrolien.56
 Hartree-Fock type      HFTyp           .... RHF
 Total Charge           Charge          ....    0
 Multiplicity           Mult            ....    1
 Number of Electrons    NEL             ....   30
 Basis Dimension        Dim             ....   44
 Nuclear Repulsion      ENuc            ....    102.9991714105 Eh

Convergence Acceleration:
 DIIS                   CNVDIIS         .... on
   Start iteration      DIISMaxIt       ....    12
   Startup error        DIISStart       ....  0.200000
   # of expansion vecs  DIISMaxEq       ....     5
   Bias factor          DIISBfac        ....   1.050
   Max. coefficient     DIISMaxC        ....  10.000
 Trust-Rad. Augm. Hess. CNVTRAH         .... auto
   Auto Start mean grad. ratio tolernc. ....  1.125000
   Auto Start start iteration           ....    20
   Auto Start num. interpolation iter.  ....    10
   Max. Number of Micro iterations      ....    16
   Max. Number of Macro iterations      .... Maxiter - #DIIS iter
   Number of Davidson start vectors     ....     2
   Converg. threshold I  (grad. norm)   ....   1.000e-05
   Converg. threshold II (energy diff.) ....   1.000e-08
   Grad. Scal. Fac. for Micro threshold ....   0.100
   Minimum threshold for Micro iter.    ....   0.010
   NR start threshold (gradient norm)   ....   0.001
   Initial trust radius                 ....   0.400
   Minimum AH scaling param. (alpha)    ....   1.000
   Maximum AH scaling param. (alpha)    .... 1000.000
   Orbital update algorithm             .... Taylor
   White noise on init. David. guess    .... on
   Maximum white noise                  ....   0.010
   Quad. conv. algorithm                .... NR
 SOSCF                  CNVSOSCF        .... on
   Start iteration      SOSCFMaxIt      ....   150
   Startup grad/error   SOSCFStart      ....  0.003300
 Level Shifting         CNVShift        .... on
   Level shift para.    LevelShift      ....    0.2500
   Turn off err/grad.   ShiftErr        ....    0.0010
 Zerner damping         CNVZerner       .... off
 Static damping         CNVDamp         .... on
   Fraction old density DampFac         ....    0.7000
   Max. Damping (<1)    DampMax         ....    0.9800
   Min. Damping (>=0)   DampMin         ....    0.0000
   Turn off err/grad.   DampErr         ....    0.1000
 Fernandez-Rico         CNVRico         .... off

SCF Procedure:
 Maximum # iterations   MaxIter         ....   500
 SCF integral mode      SCFMode         .... Direct
   Integral package                     .... SHARK and LIBINT hybrid scheme
 Reset frequency        DirectResetFreq ....    20
 Integral Threshold     Thresh          ....  2.500e-11 Eh
 Primitive CutOff       TCut            ....  2.500e-12 Eh

Convergence Tolerance:
 Convergence Check Mode ConvCheckMode   .... Total+1el-Energy
 Convergence forced     ConvForced      .... 1
 Energy Change          TolE            ....  1.000e-08 Eh
 1-El. energy change                    ....  1.000e-05 Eh
 Orbital Gradient       TolG            ....  1.000e-05
 Orbital Rotation angle TolX            ....  1.000e-05
 DIIS Error             TolErr          ....  5.000e-07


Diagonalization of the overlap matrix:
Smallest eigenvalue                        ... 5.294e-03
Time for diagonalization                   ...    0.001 sec
Threshold for overlap eigenvalues          ... 1.000e-08
Number of eigenvalues below threshold      ... 0
Time for construction of square roots      ...    0.020 sec
Total time needed                          ...    0.021 sec

Time for model grid setup =    0.078 sec

------------------------------
INITIAL GUESS: MODEL POTENTIAL
------------------------------
Loading Hartree-Fock densities                     ... done
Calculating cut-offs                               ... done
Initializing the effective Hamiltonian             ... done
Setting up the integral package (SHARK)            ... done
Starting the Coulomb interaction                   ... done (   0.1 sec)
Reading the grid                                   ... done
Mapping shells                                     ... done
Starting the XC term evaluation                    ... done (   0.0 sec)
  promolecular density results
     # of electrons  =     29.999731215
     EX              =    -24.546797294
     EC              =     -0.958223513
     EX+EC           =    -25.505020807
Transforming the Hamiltonian                       ... done (   0.0 sec)
Diagonalizing the Hamiltonian                      ... done (   0.0 sec)
Back transforming the eigenvectors                 ... done (   0.0 sec)
Now organizing SCF variables                       ... done
                      ------------------
                      INITIAL GUESS DONE (   0.3 sec)
                      ------------------
-------------------
DFT GRID GENERATION
-------------------

General Integration Accuracy     IntAcc      ... 4.388
Radial Grid Type                 RadialGrid  ... OptM3 with GC (2021)
Angular Grid (max. ang.)         AngularGrid ... 4 (Lebedev-302)
Angular grid pruning method      GridPruning ... 4 (adaptive)
Weight generation scheme         WeightScheme... Becke
Basis function cutoff            BFCut       ... 1.0000e-11
Integration weight cutoff        WCut        ... 1.0000e-14
Angular grids for H and He will be reduced by one unit
Partially contracted basis set               ... off
Rotationally invariant grid construction     ... off

Total number of grid points                  ...    37428
Total number of batches                      ...      588
Average number of points per batch           ...       63
Average number of grid points per atom       ...     4678
Time for grid setup =    0.404 sec

--------------------
COSX GRID GENERATION
--------------------

GRIDX 1
-------
General Integration Accuracy     IntAcc      ... 3.816
Radial Grid Type                 RadialGrid  ... OptM3 with GC (2021)
Angular Grid (max. ang.)         AngularGrid ... 1 (Lebedev-50)
Angular grid pruning method      GridPruning ... 4 (adaptive)
Weight generation scheme         WeightScheme... Becke
Basis function cutoff            BFCut       ... 1.0000e-11
Integration weight cutoff        WCut        ... 1.0000e-14
Angular grids for H and He will be reduced by one unit
Partially contracted basis set               ... on
Rotationally invariant grid construction     ... off

Total number of grid points                  ...     4803
Total number of batches                      ...       78
Average number of points per batch           ...       61
Average number of grid points per atom       ...      600
UseSFitting                                  ... on

GRIDX 2
-------
General Integration Accuracy     IntAcc      ... 4.020
Radial Grid Type                 RadialGrid  ... OptM3 with GC (2021)
Angular Grid (max. ang.)         AngularGrid ... 2 (Lebedev-110)
Angular grid pruning method      GridPruning ... 4 (adaptive)
Weight generation scheme         WeightScheme... Becke
Basis function cutoff            BFCut       ... 1.0000e-11
Integration weight cutoff        WCut        ... 1.0000e-14
Angular grids for H and He will be reduced by one unit
Partially contracted basis set               ... on
Rotationally invariant grid construction     ... off

Total number of grid points                  ...    10564
Total number of batches                      ...      169
Average number of points per batch           ...       62
Average number of grid points per atom       ...     1320
UseSFitting                                  ... on

GRIDX 3
-------
General Integration Accuracy     IntAcc      ... 4.338
Radial Grid Type                 RadialGrid  ... OptM3 with GC (2021)
Angular Grid (max. ang.)         AngularGrid ... 3 (Lebedev-194)
Angular grid pruning method      GridPruning ... 4 (adaptive)
Weight generation scheme         WeightScheme... Becke
Basis function cutoff            BFCut       ... 1.0000e-11
Integration weight cutoff        WCut        ... 1.0000e-14
Angular grids for H and He will be reduced by one unit
Partially contracted basis set               ... on
Rotationally invariant grid construction     ... off

Total number of grid points                  ...    23328
Total number of batches                      ...      369
Average number of points per batch           ...       63
Average number of grid points per atom       ...     2916
UseSFitting                                  ... on

Time for X-Grid setup             =    0.689 sec

--------------
SCF ITERATIONS
--------------
ITER       Energy         Delta-E        Max-DP      RMS-DP      [F,P]     Damp
               ***  Starting incremental Fock matrix formation  ***
  0   -191.6135538739   0.000000000000 0.08394541  0.00577328  0.2494706 0.7000
  1   -191.6621876323  -0.048633758393 0.05221084  0.00376445  0.1086605 0.7000
                               ***Turning on DIIS***
  2   -191.6811942355  -0.019006603176 0.06976832  0.00588961  0.0330174 0.0000
  3   -191.7134109961  -0.032216760583 0.03282013  0.00264470  0.0560071 0.0000
  4   -191.7189852087  -0.005574212627 0.00715658  0.00070226  0.0101129 0.0000
                      *** Initiating the SOSCF procedure ***
                           *** Shutting down DIIS ***
                      *** Re-Reading the Fockian *** 
                      *** Removing any level shift *** 
ITER      Energy       Delta-E        Grad      Rot      Max-DP    RMS-DP
  5   -191.71935916  -0.0003739538  0.001154  0.001154  0.002984  0.000270
               *** Restarting incremental Fock matrix formation ***
  6   -191.71939052  -0.0000313622  0.000567  0.001409  0.002008  0.000166
  7   -191.71939677  -0.0000062502  0.000207  0.001093  0.001664  0.000118
  8   -191.71939755  -0.0000007716  0.000116  0.000306  0.000365  0.000031
  9   -191.71939782  -0.0000002716  0.000040  0.000083  0.000120  0.000011
 10   -191.71939783  -0.0000000069  0.000022  0.000034  0.000057  0.000006
 11   -191.71939784  -0.0000000132  0.000004  0.000006  0.000016  0.000001
 12   -191.71939784   0.0000000001  0.000006  0.000004  0.000010  0.000001
                  ***Gradient check signals convergence***
              ***Rediagonalizing the Fockian in SOSCF/NRSCF***

               *****************************************************
               *                     SUCCESS                       *
               *           SCF CONVERGED AFTER  13 CYCLES          *
               *****************************************************

Old exchange energy                            =     -7.083142345 Eh
New exchange energy                            =     -7.083147120 Eh
Exchange energy change after final integration =     -0.000004775 Eh
Total energy after final integration           =   -191.719402613 Eh
Final COS-X integration done in                =     2.040 sec

----------------
TOTAL SCF ENERGY
----------------

Total Energy       :         -191.71940261 Eh           -5216.95017 eV

Components:
Nuclear Repulsion  :          102.99917141 Eh            2802.74994 eV
Electronic Energy  :         -294.71857402 Eh           -8019.70011 eV
One Electron Energy:         -463.01466341 Eh          -12599.26953 eV
Two Electron Energy:          168.29608938 Eh            4579.56941 eV
Max COSX asymmetry :            0.00000136 Eh               0.00004 eV

Virial components:
Potential Energy   :         -382.08481286 Eh          -10397.05633 eV
Kinetic Energy     :          190.36541025 Eh            5180.10616 eV
Virial Ratio       :            2.00711260


DFT components:
N(Alpha)           :       15.000004316792 electrons
N(Beta)            :       15.000004316792 electrons
N(Total)           :       30.000008633585 electrons
E(XC)              :      -18.975889061530 Eh       
DFET-embed. en.    :        0.000000000000 Eh       

---------------
SCF CONVERGENCE
---------------

  Last Energy change         ...   -6.6504e-10  Tolerance :   1.0000e-08
  Last MAX-Density change    ...    3.5527e-15  Tolerance :   1.0000e-07
  Last RMS-Density change    ...    1.2067e-16  Tolerance :   5.0000e-09
  Last Orbital Gradient      ...    5.7500e-07  Tolerance :   1.0000e-05
  Last Orbital Rotation      ...    1.6724e-06  Tolerance :   1.0000e-05

             **** THE GBW FILE WAS UPDATED (acrolien.56.gbw) ****
             **** DENSITY acrolien.56.scfp WAS UPDATED ****
             **** ENERGY FILE WAS UPDATED (acrolien.56.en.tmp) ****
             **** THE GBW FILE WAS UPDATED (acrolien.56.gbw) ****
             **** DENSITY acrolien.56.scfp WAS UPDATED ****
----------------
ORBITAL ENERGIES
----------------

  NO   OCC          E(Eh)            E(eV) 
   0   2.0000     -19.231403      -523.3131 
   1   2.0000     -10.368447      -282.1398 
   2   2.0000     -10.302306      -280.3400 
   3   2.0000     -10.289940      -280.0035 
   4   2.0000      -1.183658       -32.2090 
   5   2.0000      -0.865859       -23.5612 
   6   2.0000      -0.708348       -19.2751 
   7   2.0000      -0.603027       -16.4092 
   8   2.0000      -0.575439       -15.6585 
   9   2.0000      -0.515287       -14.0217 
  10   2.0000      -0.498738       -13.5713 
  11   2.0000      -0.481877       -13.1125 
  12   2.0000      -0.436143       -11.8680 
  13   2.0000      -0.346536        -9.4297 
  14   2.0000      -0.320020        -8.7082 
  15   0.0000      -0.009401        -0.2558 
  16   0.0000       0.111408         3.0316 
  17   0.0000       0.130040         3.5386 
  18   0.0000       0.147039         4.0011 
  19   0.0000       0.181706         4.9445 
  20   0.0000       0.218183         5.9371 
  21   0.0000       0.314512         8.5583 
  22   0.0000       0.355100         9.6628 
  23   0.0000       0.375985        10.2311 
  24   0.0000       0.566444        15.4137 
  25   0.0000       0.576739        15.6939 
  26   0.0000       0.634779        17.2732 
  27   0.0000       0.687035        18.6952 
  28   0.0000       0.698588        19.0096 
  29   0.0000       0.714450        19.4412 
  30   0.0000       0.763251        20.7691 
  31   0.0000       0.809612        22.0307 
  32   0.0000       0.841756        22.9053 
  33   0.0000       0.851209        23.1626 
  34   0.0000       0.911597        24.8058 
  35   0.0000       0.926330        25.2067 
  36   0.0000       1.000321        27.2201 
  37   0.0000       1.043791        28.4030 
  38   0.0000       1.054185        28.6858 
  39   0.0000       1.173883        31.9430 
  40   0.0000       1.196750        32.5652 
  41   0.0000       1.231024        33.4979 
  42   0.0000       1.353418        36.8284 
  43   0.0000       1.827554        49.7303 

                    ********************************
                    * MULLIKEN POPULATION ANALYSIS *
                    ********************************

-----------------------
MULLIKEN ATOMIC CHARGES
-----------------------
   0 C :    0.165763
   1 O :   -0.329518
   2 C :   -0.129545
   3 C :   -0.286726
   4 H :    0.102983
   5 H :    0.148491
   6 H :    0.179189
   7 H :    0.149363
Sum of atomic charges:    0.0000000

--------------------------------
MULLIKEN REDUCED ORBITAL CHARGES
--------------------------------
  0 C s       :     3.210040  s :     3.210040
      pz      :     0.781784  p :     2.624197
      px      :     1.032553
      py      :     0.809861
  1 O s       :     3.904633  s :     3.904633
      pz      :     1.294466  p :     4.424884
      px      :     1.789781
      py      :     1.340637
  2 C s       :     3.224510  s :     3.224510
      pz      :     1.027890  p :     2.905035
      px      :     0.890314
      py      :     0.986831
  3 C s       :     3.331128  s :     3.331128
      pz      :     0.913057  p :     2.955598
      px      :     0.993286
      py      :     1.049255
  4 H s       :     0.897017  s :     0.897017
  5 H s       :     0.851509  s :     0.851509
  6 H s       :     0.820811  s :     0.820811
  7 H s       :     0.850637  s :     0.850637


                     *******************************
                     * LOEWDIN POPULATION ANALYSIS *
                     *******************************

----------------------
LOEWDIN ATOMIC CHARGES
----------------------
   0 C :    0.108424
   1 O :   -0.209090
   2 C :   -0.195348
   3 C :   -0.176049
   4 H :    0.071707
   5 H :    0.125658
   6 H :    0.143989
   7 H :    0.130709

-------------------------------
LOEWDIN REDUCED ORBITAL CHARGES
-------------------------------
  0 C s       :     3.000618  s :     3.000618
      pz      :     0.786931  p :     2.890958
      px      :     1.072532
      py      :     1.031495
  1 O s       :     3.601908  s :     3.601908
      pz      :     1.292844  p :     4.607182
      px      :     1.832918
      py      :     1.481420
  2 C s       :     3.000976  s :     3.000976
      pz      :     1.020324  p :     3.194373
      px      :     1.085319
      py      :     1.088730
  3 C s       :     3.042786  s :     3.042786
      pz      :     0.918896  p :     3.133263
      px      :     1.100490
      py      :     1.113877
  4 H s       :     0.928293  s :     0.928293
  5 H s       :     0.874342  s :     0.874342
  6 H s       :     0.856011  s :     0.856011
  7 H s       :     0.869291  s :     0.869291


                      *****************************
                      * MAYER POPULATION ANALYSIS *
                      *****************************

  NA   - Mulliken gross atomic population
  ZA   - Total nuclear charge
  QA   - Mulliken gross atomic charge
  VA   - Mayer's total valence
  BVA  - Mayer's bonded valence
  FA   - Mayer's free valence

  ATOM       NA         ZA         QA         VA         BVA        FA
  0 C      5.8342     6.0000     0.1658     3.7415     3.7415     0.0000
  1 O      8.3295     8.0000    -0.3295     2.0617     2.0617    -0.0000
  2 C      6.1295     6.0000    -0.1295     3.7330     3.7330     0.0000
  3 C      6.2867     6.0000    -0.2867     3.8312     3.8312     0.0000
  4 H      0.8970     1.0000     0.1030     0.9422     0.9422    -0.0000
  5 H      0.8515     1.0000     0.1485     0.9479     0.9479    -0.0000
  6 H      0.8208     1.0000     0.1792     0.9507     0.9507     0.0000
  7 H      0.8506     1.0000     0.1494     0.9542     0.9542     0.0000

  Mayer bond orders larger than 0.100000
B(  0-C ,  1-O ) :   1.9168 B(  0-C ,  2-C ) :   0.9229 B(  0-C ,  4-H ) :   0.8738 
B(  2-C ,  3-C ) :   1.8799 B(  2-C ,  5-H ) :   0.9324 B(  3-C ,  6-H ) :   0.9294 
B(  3-C ,  7-H ) :   0.9441 

-------
TIMINGS
-------

Total SCF time: 0 days 0 hours 0 min 28 sec 

Total time                  ....      28.806 sec
Sum of individual times     ....      25.476 sec  ( 88.4%)

Fock matrix formation       ....      24.112 sec  ( 83.7%)
  Split-RI-J                ....       0.667 sec  (  2.8% of F)
  Chain of spheres X        ....      11.828 sec  ( 49.1% of F)
  XC integration            ....       4.862 sec  ( 20.2% of F)
    Basis function eval.    ....       1.001 sec  ( 20.6% of XC)
    Density eval.           ....       0.409 sec  (  8.4% of XC)
    XC-Functional eval.     ....       1.644 sec  ( 33.8% of XC)
    XC-Potential eval.      ....       0.237 sec  (  4.9% of XC)
Diagonalization             ....       0.003 sec  (  0.0%)
Density matrix formation    ....       0.000 sec  (  0.0%)
Population analysis         ....       0.003 sec  (  0.0%)
Initial guess               ....       0.175 sec  (  0.6%)
Orbital Transformation      ....       0.000 sec  (  0.0%)
Orbital Orthonormalization  ....       0.000 sec  (  0.0%)
DIIS solution               ....       0.008 sec  (  0.0%)
SOSCF solution              ....       0.002 sec  (  0.0%)
Grid generation             ....       1.172 sec  (  4.1%)

Maximum memory used throughout the entire SCF-calculation: 46.8 MB
------------------------------------------------------------------------------
                        ORCA TD-DFT/TDA CALCULATION
------------------------------------------------------------------------------

Input orbitals are from        ... acrolien.56.gbw
CI-vector output               ... acrolien.56.cis
Tamm-Dancoff approximation     ... operative
CIS-Integral strategy          ... AO-integrals
Integral handling              ... AO integral Direct
Max. core memory used          ... 512 MB
Reference state                ... RHF
Generation of triplets         ... off
Follow IRoot                   ... off
Number of operators            ... 1
Orbital ranges used for CIS calculation:
 Operator 0:  Orbitals   4... 14  to  15... 43
XAS localization array:
 Operator 0:  Orbitals  -1... -1

-------------------
XC-INTEGRATION GRID
-------------------

General Integration Accuracy     IntAcc      ... 3.467
Radial Grid Type                 RadialGrid  ... OptM3 with GC (2021)
Angular Grid (max. ang.)         AngularGrid ... 1 (Lebedev-50)
Angular grid pruning method      GridPruning ... 4 (adaptive)
Weight generation scheme         WeightScheme... Becke
Basis function cutoff            BFCut       ... 1.0000e-11
Integration weight cutoff        WCut        ... 1.0000e-14
Angular grids for H and He will be reduced by one unit
Partially contracted basis set               ... off
Rotationally invariant grid construction     ... off

Total number of grid points                  ...     5497
Total number of batches                      ...       91
Average number of points per batch           ...       60
Average number of grid points per atom       ...      687

---------------------
COSX-INTEGRATION GRID
---------------------

General Integration Accuracy     IntAcc      ... 3.067
Radial Grid Type                 RadialGrid  ... OptM3 with GC (2021)
Angular Grid (max. ang.)         AngularGrid ... 1 (Lebedev-50)
Angular grid pruning method      GridPruning ... 4 (adaptive)
Weight generation scheme         WeightScheme... Becke
Basis function cutoff            BFCut       ... 1.0000e-11
Integration weight cutoff        WCut        ... 1.0000e-14
Angular grids for H and He will be reduced by one unit
Partially contracted basis set               ... on
Rotationally invariant grid construction     ... off

Total number of grid points                  ...     2509
Total number of batches                      ...       46
Average number of points per batch           ...       54
Average number of grid points per atom       ...      314

---------------
TD-DFT XC SETUP
---------------

DFT calculation                         ... on
Name of the grid file                   ... acrolien.56.grid_cis.tmp
Exchange functional (TD-DFT)            ... WB88
Correlation functional (TD-DFT)         ... LYP
 LDA part of GGA corr.  LDAOpt (TD-DFT) ... VWN-5
Hybrid DFT                              ... on
   Exchange mixing (TD-DFT)             ...  0.190
   GGA exch. scaling (TD-DFT)           ...  0.350
   GGA corr. scaling (TD-DFT)           ...  0.810
Range-Separated Exchange                ... on
   Range Range separation parameter mu  .... 0.330
   Max. amount of RS exchange (TD-DFT)  ...  0.460

Building densities             ... done
Calculating rho(r) on the grid ... done
Building xc-kernel on the grid ... done
                    *** TD-DFT CALCULATION INITIALIZED ***

------------------------
DAVIDSON-DIAGONALIZATION
------------------------

Dimension of the eigenvalue problem            ...    319
Number of roots to be determined               ...      1
Maximum size of the expansion space            ...     10
Maximum number of iterations                   ...    100
Convergence tolerance for the residual         ...    2.500e-07
Convergence tolerance for the energies         ...    2.500e-07
Orthogonality tolerance                        ...    1.000e-14
Level Shift                                    ...    0.000e+00
Constructing the preconditioner                ... o.k.
Building the initial guess                     ... o.k.
Number of trial vectors determined             ...     10


                       ****Iteration    0****

   Memory handling for direct AO based CIS:
   Memory per vector needed      ...     1 MB
   Memory needed                 ...     0 MB
   Memory available              ...   512 MB
   Number of vectors per batch   ...   512
   Number of batches             ...     1
   Time for densities:            0.000
   Time for RI-J (Direct):        0.043
   Time for K (COSX):             0.259
   Time for XC-Integration:       0.038
   Time for Sigma-Completion:     0.001
   Size of expansion space: 3
   Lowest Energy          :     0.151290396314
   Maximum Energy change  :     0.151290396314 (vector 0)
   Maximum residual norm  :     0.001955691954

                       ****Iteration    1****
   Time for densities:            0.000
   Time for RI-J (Direct):        0.034
   Time for K (COSX):             0.436
   Time for XC-Integration:       0.022
   Time for Sigma-Completion:     0.000
   Size of expansion space: 4
   Lowest Energy          :     0.142536591524
   Maximum Energy change  :     0.008753804790 (vector 0)
   Maximum residual norm  :     0.000297108257

                       ****Iteration    2****
   Time for densities:            0.000
   Time for RI-J (Direct):        0.034
   Time for K (COSX):             0.258
   Time for XC-Integration:       0.022
   Time for Sigma-Completion:     0.000
   Size of expansion space: 5
   Lowest Energy          :     0.142036904600
   Maximum Energy change  :     0.000499686924 (vector 0)
   Maximum residual norm  :     0.000067200427

                       ****Iteration    3****
   Time for densities:            0.000
   Time for RI-J (Direct):        0.034
   Time for K (COSX):             0.251
   Time for XC-Integration:       0.022
   Time for Sigma-Completion:     0.000
   Size of expansion space: 6
   Lowest Energy          :     0.141954220955
   Maximum Energy change  :     0.000082683645 (vector 0)
   Maximum residual norm  :     0.000008084324

                       ****Iteration    4****
   Time for densities:            0.000
   Time for RI-J (Direct):        0.034
   Time for K (COSX):             0.330
   Time for XC-Integration:       0.022
   Time for Sigma-Completion:     0.000
   Size of expansion space: 7
   Lowest Energy          :     0.141945620298
   Maximum Energy change  :     0.000008600657 (vector 0)
   Maximum residual norm  :     0.000000743224

                       ****Iteration    5****
   Time for densities:            0.000
   Time for RI-J (Direct):        0.034
   Time for K (COSX):             0.618
   Time for XC-Integration:       0.023
   Time for Sigma-Completion:     0.000
   Size of expansion space: 8
   Lowest Energy          :     0.141944605076
   Maximum Energy change  :     0.000001015221 (vector 0)
   Maximum residual norm  :     0.000000029916

      *** CONVERGENCE OF RESIDUAL NORM REACHED ***

Storing the converged CI vectors               ... acrolien.56.cis1

                 *** DAVIDSON DONE ***

Total time for solving the CIS problem:     3.578sec

------------------------------------
TD-DFT/TDA EXCITED STATES (SINGLETS)
------------------------------------

the weight of the individual excitations are printed if larger than 1.0e-02

STATE  1:  E=   0.141945 au      3.863 eV    31153.2 cm**-1 <S**2> =   0.000000
    14a ->  15a  :     0.937753 (c= -0.96837642)
    14a ->  16a  :     0.047647 (c=  0.21828172)


-----------------------------
TD-DFT/TDA-EXCITATION SPECTRA
-----------------------------

Center of mass = (  0.5764, -0.9091, -0.0006)
Calculating the Dipole integrals                  ... done
Transforming integrals                            ... done
Calculating the Linear Momentum integrals         ... done
Transforming integrals                            ... done
Calculating angular momentum integrals            ... done
Transforming integrals                            ... done

-----------------------------------------------------------------------------
         ABSORPTION SPECTRUM VIA TRANSITION ELECTRIC DIPOLE MOMENTS
-----------------------------------------------------------------------------
State   Energy    Wavelength  fosc         T2        TX        TY        TZ  
        (cm-1)      (nm)                 (au**2)    (au)      (au)      (au) 
-----------------------------------------------------------------------------
   1   31153.2    321.0   0.000365003   0.00386   0.03675   0.00225  -0.05002

-----------------------------------------------------------------------------
         ABSORPTION SPECTRUM VIA TRANSITION VELOCITY DIPOLE MOMENTS
-----------------------------------------------------------------------------
State   Energy    Wavelength   fosc        P2         PX        PY        PZ  
        (cm-1)      (nm)                 (au**2)     (au)      (au)      (au) 
-----------------------------------------------------------------------------
   1   31153.2    321.0   0.000590166   0.00013  -0.00700   0.00092   0.00871

-------------------------------------------------------------------
                             CD SPECTRUM
-------------------------------------------------------------------
State  Energy     Wavelength     R         MX        MY        MZ   
       (cm-1)       (nm)     (1e40*cgs)   (au)      (au)      (au)  
-------------------------------------------------------------------
   1   31153.2    321.0      0.17818  -0.02316  -0.39714  -0.04241

-------------------------------------------------------------------
         CD SPECTRUM VIA TRANSITION VELOCITY DIPOLE MOMENTS        
-------------------------------------------------------------------
State  Energy     Wavelength     R         MX        MY        MZ   
       (cm-1)       (nm)     (1e40*cgs)   (au)      (au)      (au)  
-------------------------------------------------------------------
   1   31153.2    321.0     -1.90552  -0.02316  -0.39714  -0.04241

Total run time:        5.636 sec

           *** ORCA-CIS/TD-DFT FINISHED WITHOUT ERROR ***

Maximum memory used throughout the entire CIS-calculation: 44.1 MB

-----------------------
CIS/TD-DFT TOTAL ENERGY
-----------------------

    E(SCF)  =   -191.719402613 Eh
    DE(CIS) =      0.141944605 Eh (Root  1)
    ----------------------------- ---------
    E(tot)  =   -191.577458008 Eh


-------------------------   --------------------
FINAL SINGLE POINT ENERGY      -191.577458008393
-------------------------   --------------------


                            ***************************************
                            *     ORCA property calculations      *
                            ***************************************

                                    ---------------------
                                    Active property flags
                                    ---------------------
   (+) Dipole Moment


------------------------------------------------------------------------------
                       ORCA ELECTRIC PROPERTIES CALCULATION
------------------------------------------------------------------------------

Dipole Moment Calculation                       ... on
Quadrupole Moment Calculation                   ... off
Polarizability Calculation                      ... off
GBWName                                         ... acrolien.56.gbw
Electron density                                ... acrolien.56.scfp
The origin for moment calculation is the CENTER OF MASS  = ( 0.576391, -0.909075 -0.000567)

-------------
DIPOLE MOMENT
-------------
                                X             Y             Z
Electronic contribution:     -1.83169      -1.61872      -0.12868
Nuclear contribution   :      2.15396       2.52286       0.14343
                        -----------------------------------------
Total Dipole Moment    :      0.32227       0.90414       0.01475
                        -----------------------------------------
Magnitude (a.u.)       :      0.95997
Magnitude (Debye)      :      2.44006



--------------------
Rotational spectrum 
--------------------
 
Rotational constants in cm-1:     0.734795     0.203920     0.160029 
Rotational constants in MHz : 22028.596984  6113.382469  4797.563438 

 Dipole components along the rotational axes: 
x,y,z [a.u.] :     0.747718    -0.601822     0.016694 
x,y,z [Debye]:     1.900549    -1.529711     0.042434 

 

Timings for individual modules:

Sum of individual times         ...       34.755 sec (=   0.579 min)
GTO integral calculation        ...        0.295 sec (=   0.005 min)   0.8 %
SCF iterations                  ...       28.815 sec (=   0.480 min)  82.9 %
CIS module                      ...        5.645 sec (=   0.094 min)  16.2 %
                             ****ORCA TERMINATED NORMALLY****
TOTAL RUN TIME: 0 days 0 hours 0 minutes 35 seconds 190 msec
