
                                 *****************
                                 * O   R   C   A *
                                 *****************

                                            #,                                       
                                            ###                                      
                                            ####                                     
                                            #####                                    
                                            ######                                   
                                           ########,                                 
                                     ,,################,,,,,                         
                               ,,#################################,,                 
                          ,,##########################################,,             
                       ,#########################################, ''#####,          
                    ,#############################################,,   '####,        
                  ,##################################################,,,,####,       
                ,###########''''           ''''###############################       
              ,#####''   ,,,,##########,,,,          '''####'''          '####       
            ,##' ,,,,###########################,,,                        '##       
           ' ,,###''''                  '''############,,,                           
         ,,##''                                '''############,,,,        ,,,,,,###''
      ,#''                                            '''#######################'''  
     '                                                          ''''####''''         
             ,#######,   #######,   ,#######,      ##                                
            ,#'     '#,  ##    ##  ,#'     '#,    #''#        ######   ,####,        
            ##       ##  ##   ,#'  ##            #'  '#       #        #'  '#        
            ##       ##  #######   ##           ,######,      #####,   #    #        
            '#,     ,#'  ##    ##  '#,     ,#' ,#      #,         ##   #,  ,#        
             '#######'   ##     ##  '#######'  #'      '#     #####' # '####'        



                  #######################################################
                  #                        -***-                        #
                  #          Department of theory and spectroscopy      #
                  #    Directorship and core code : Frank Neese         #
                  #        Max Planck Institute fuer Kohlenforschung    #
                  #                Kaiser Wilhelm Platz 1               #
                  #                 D-45470 Muelheim/Ruhr               #
                  #                      Germany                        #
                  #                                                     #
                  #                  All rights reserved                #
                  #                        -***-                        #
                  #######################################################


                         Program Version 5.0.3 -  RELEASE  -


 With contributions from (in alphabetic order):
   Daniel Aravena         : Magnetic Suceptibility
   Michael Atanasov       : Ab Initio Ligand Field Theory (pilot matlab implementation)
   Alexander A. Auer      : GIAO ZORA, VPT2 properties, NMR spectrum
   Ute Becker             : Parallelization
   Giovanni Bistoni       : ED, misc. LED, open-shell LED, HFLD
   Martin Brehm           : Molecular dynamics
   Dmytro Bykov           : SCF Hessian
   Vijay G. Chilkuri      : MRCI spin determinant printing, contributions to CSF-ICE
   Dipayan Datta          : RHF DLPNO-CCSD density
   Achintya Kumar Dutta   : EOM-CC, STEOM-CC
   Dmitry Ganyushin       : Spin-Orbit,Spin-Spin,Magnetic field MRCI
   Miquel Garcia          : C-PCM and meta-GGA Hessian, CC/C-PCM, Gaussian charge scheme
   Yang Guo               : DLPNO-NEVPT2, F12-NEVPT2, CIM, IAO-localization
   Andreas Hansen         : Spin unrestricted coupled pair/coupled cluster methods
   Benjamin Helmich-Paris : MC-RPA, TRAH-SCF, COSX integrals
   Lee Huntington         : MR-EOM, pCC
   Robert Izsak           : Overlap fitted RIJCOSX, COSX-SCS-MP3, EOM
   Marcus Kettner         : VPT2
   Christian Kollmar      : KDIIS, OOCD, Brueckner-CCSD(T), CCSD density, CASPT2, CASPT2-K
   Simone Kossmann        : Meta GGA functionals, TD-DFT gradient, OOMP2, MP2 Hessian
   Martin Krupicka        : Initial AUTO-CI
   Lucas Lang             : DCDCAS
   Marvin Lechner         : AUTO-CI (C++ implementation), FIC-MRCC
   Dagmar Lenk            : GEPOL surface, SMD
   Dimitrios Liakos       : Extrapolation schemes; Compound Job, initial MDCI parallelization
   Dimitrios Manganas     : Further ROCIS development; embedding schemes
   Dimitrios Pantazis     : SARC Basis sets
   Anastasios Papadopoulos: AUTO-CI, single reference methods and gradients
   Taras Petrenko         : DFT Hessian,TD-DFT gradient, ASA, ECA, R-Raman, ABS, FL, XAS/XES, NRVS
   Peter Pinski           : DLPNO-MP2, DLPNO-MP2 Gradient
   Christoph Reimann      : Effective Core Potentials
   Marius Retegan         : Local ZFS, SOC
   Christoph Riplinger    : Optimizer, TS searches, QM/MM, DLPNO-CCSD(T), (RO)-DLPNO pert. Triples
   Tobias Risthaus        : Range-separated hybrids, TD-DFT gradient, RPA, STAB
   Michael Roemelt        : Original ROCIS implementation
   Masaaki Saitow         : Open-shell DLPNO-CCSD energy and density
   Barbara Sandhoefer     : DKH picture change effects
   Avijit Sen             : IP-ROCIS
   Kantharuban Sivalingam : CASSCF convergence, NEVPT2, FIC-MRCI
   Bernardo de Souza      : ESD, SOC TD-DFT
   Georgi Stoychev        : AutoAux, RI-MP2 NMR, DLPNO-MP2 response
   Willem Van den Heuvel  : Paramagnetic NMR
   Boris Wezisla          : Elementary symmetry handling
   Frank Wennmohs         : Technical directorship


 We gratefully acknowledge several colleagues who have allowed us to
 interface, adapt or use parts of their codes:
   Stefan Grimme, W. Hujo, H. Kruse, P. Pracht,  : VdW corrections, initial TS optimization,
                  C. Bannwarth, S. Ehlert          DFT functionals, gCP, sTDA/sTD-DF
   Ed Valeev, F. Pavosevic, A. Kumar             : LibInt (2-el integral package), F12 methods
   Garnet Chan, S. Sharma, J. Yang, R. Olivares  : DMRG
   Ulf Ekstrom                                   : XCFun DFT Library
   Mihaly Kallay                                 : mrcc  (arbitrary order and MRCC methods)
   Jiri Pittner, Ondrej Demel                    : Mk-CCSD
   Frank Weinhold                                : gennbo (NPA and NBO analysis)
   Christopher J. Cramer and Donald G. Truhlar   : smd solvation model
   Lars Goerigk                                  : TD-DFT with DH, B97 family of functionals
   V. Asgeirsson, H. Jonsson                     : NEB implementation
   FAccTs GmbH                                   : IRC, NEB, NEB-TS, DLPNO-Multilevel, CI-OPT
                                                   MM, QMMM, 2- and 3-layer-ONIOM, Crystal-QMMM,
                                                   LR-CPCM, SF, NACMEs, symmetry and pop. for TD-DFT,
                                                   nearIR, NL-DFT gradient (VV10), updates on ESD,
                                                   ML-optimized integration grids
   S Lehtola, MJT Oliveira, MAL Marques          : LibXC Library
   Liviu Ungur et al                             : ANISO software


 Your calculation uses the libint2 library for the computation of 2-el integrals
 For citations please refer to: http://libint.valeyev.net

 Your ORCA version has been built with support for libXC version: 5.1.0
 For citations please refer to: https://tddft.org/programs/libxc/

 This ORCA versions uses:
   CBLAS   interface :  Fast vector & matrix operations
   LAPACKE interface :  Fast linear algebra routines
   SCALAPACK package :  Parallel linear algebra routines
   Shared memory     :  Shared parallel matrices
   BLAS/LAPACK       :  OpenBLAS 0.3.15  USE64BITINT DYNAMIC_ARCH NO_AFFINITY Haswell SINGLE_THREADED
        Core in use  :  Haswell
   Copyright (c) 2011-2014, The OpenBLAS Project


XCFun DFT library Copyright 2009-2010 Ulf Ekstrom and contributors.
See http://admol.org/xcfun for more information.
This is free software; see the source code for copying conditions.
There is ABSOLUTELY NO WARRANTY; not even for MERCHANTABILITY or FITNESS FOR A PARTICULAR PURPOSE.
For details see the documentation.
Scientific users of this library should cite U. Ekstrom, L. Visscher, R. Bast, A. J. Thorvaldsen and K. Ruud;
J.Chem.Theor.Comp. 2010, DOI: 10.1021/ct100117s
XCFun Version 0.99 

================================================================================

----- Orbital basis set information -----
Your calculation utilizes the basis: 6-31G
   H-He, Li-Ne : W. J. Hehre, R. Ditchfield and J.A. Pople, J. Chem. Phys. 56, 2257 (1972).
                 Note: He and Ne are unpublished basis sets taken from the Gaussian program.
                 Note: Li and B from J. D. Dill and J. A. Pople, J. Chem. Phys. 62, 2921 (1975).
   Na - Ar     : M. M. Francl, W. J. Pietro, W. J. Hehre, J. S. Binkley, M. S. Gordon, 
                 D. J. DeFrees and J. A. Pople, J. Chem. Phys. 77, 3654 (1982).
   K - Zn      : V. A. Rassolov, J. A. Pople, M. A. Ratner, and T. L. Windus, J. Chem. Phys. 109, 1223 (1998).

----- AuxJ basis set information -----
Your calculation utilizes the auxiliary basis: def2/J
   F. Weigend, Phys. Chem. Chem. Phys. 8, 1057 (2006).

================================================================================
                                        WARNINGS
                       Please study these warnings very carefully!
================================================================================

INFO   : Checking CIS options ...

INFO   : the flag for use of the SHARK integral package has been found!

================================================================================
                                       INPUT FILE
================================================================================
NAME = acrolien.897.com
|  1> ! RKS CAM-B3LYP 6-31G
|  2> !TightSCF
|  3> %scf
|  4>  ConvForced true
|  5>  convergence tight
|  6>  MaxIter 500
|  7> end
|  8>  
|  9> %tddft 
| 10>  nroots 1
| 11> end
| 12> 
| 13> # 	2336
| 14> * xyz 0 1
| 15> 		C   -1.174640  -0.302329  -0.075181
| 16> 		O   -2.073882  -0.536130   0.852973
| 17> 		C    0.052764   0.458012   0.202851
| 18> 		C    1.234500   0.087095  -0.179388
| 19> 		H   -1.167105  -0.835314  -1.021815
| 20> 		H   -0.172267   1.228792   1.017043
| 21> 		H    1.321531  -0.624317  -0.816731
| 22> 		H    1.998419   0.577707   0.010765
| 23> *
| 24> 
| 25>                          ****END OF INPUT****
================================================================================

                       ****************************
                       * Single Point Calculation *
                       ****************************

---------------------------------
CARTESIAN COORDINATES (ANGSTROEM)
---------------------------------
  C     -1.174640   -0.302329   -0.075181
  O     -2.073882   -0.536130    0.852973
  C      0.052764    0.458012    0.202851
  C      1.234500    0.087095   -0.179388
  H     -1.167105   -0.835314   -1.021815
  H     -0.172267    1.228792    1.017043
  H      1.321531   -0.624317   -0.816731
  H      1.998419    0.577707    0.010765

----------------------------
CARTESIAN COORDINATES (A.U.)
----------------------------
  NO LB      ZA    FRAG     MASS         X           Y           Z
   0 C     6.0000    0    12.011   -2.219748   -0.571319   -0.142072
   1 O     8.0000    0    15.999   -3.919069   -1.013139    1.611885
   2 C     6.0000    0    12.011    0.099710    0.865517    0.383333
   3 C     6.0000    0    12.011    2.332867    0.164586   -0.338994
   4 H     1.0000    0     1.008   -2.205509   -1.578515   -1.930951
   5 H     1.0000    0     1.008   -0.325537    2.322080    1.921933
   6 H     1.0000    0     1.008    2.497332   -1.179788   -1.543398
   7 H     1.0000    0     1.008    3.776465    1.091708    0.020343

--------------------------------
INTERNAL COORDINATES (ANGSTROEM)
--------------------------------
 C      0   0   0     0.000000000000     0.00000000     0.00000000
 O      1   0   0     1.313304583819     0.00000000     0.00000000
 C      1   2   0     1.470353973886   122.00556734     0.00000000
 C      3   1   2     1.296219907155   123.86964827   133.68696059
 H      1   2   3     1.086391143376   122.22361892   165.74169964
 H      3   1   2     1.143524976651   108.59745595   328.73105785
 H      4   3   1     0.959107672972   119.40217828    12.18089961
 H      4   3   1     0.927593950236   122.61645169   180.43066667

---------------------------
INTERNAL COORDINATES (A.U.)
---------------------------
 C      0   0   0     0.000000000000     0.00000000     0.00000000
 O      1   0   0     2.481785993842     0.00000000     0.00000000
 C      1   2   0     2.778566330566   122.00556734     0.00000000
 C      3   1   2     2.449500633861   123.86964827   133.68696059
 H      1   2   3     2.052981735298   122.22361892   165.74169964
 H      3   1   2     2.160949033169   108.59745595   328.73105785
 H      4   3   1     1.812450834860   119.40217828    12.18089961
 H      4   3   1     1.752898529428   122.61645169   180.43066667

---------------------
BASIS SET INFORMATION
---------------------
There are 3 groups of distinct atoms

 Group   1 Type C   : 10s4p contracted to 3s2p pattern {631/31}
 Group   2 Type O   : 10s4p contracted to 3s2p pattern {631/31}
 Group   3 Type H   : 4s contracted to 2s pattern {31}

Atom   0C    basis set group =>   1
Atom   1O    basis set group =>   2
Atom   2C    basis set group =>   1
Atom   3C    basis set group =>   1
Atom   4H    basis set group =>   3
Atom   5H    basis set group =>   3
Atom   6H    basis set group =>   3
Atom   7H    basis set group =>   3
---------------------------------
AUXILIARY/J BASIS SET INFORMATION
---------------------------------
There are 3 groups of distinct atoms

 Group   1 Type C   : 12s5p4d2f1g contracted to 6s4p3d1f1g pattern {711111/2111/211/2/1}
 Group   2 Type O   : 12s5p4d2f1g contracted to 6s4p3d1f1g pattern {711111/2111/211/2/1}
 Group   3 Type H   : 5s2p1d contracted to 3s1p1d pattern {311/2/1}

Atom   0C    basis set group =>   1
Atom   1O    basis set group =>   2
Atom   2C    basis set group =>   1
Atom   3C    basis set group =>   1
Atom   4H    basis set group =>   3
Atom   5H    basis set group =>   3
Atom   6H    basis set group =>   3
Atom   7H    basis set group =>   3
------------------------------------------------------------------------------
                           ORCA GTO INTEGRAL CALCULATION
                           -- RI-GTO INTEGRALS CHOSEN --
------------------------------------------------------------------------------
------------------------------------------------------------------------------
                   ___                                                        
                  /   \      - P O W E R E D   B Y -                         
                 /     \                                                     
                 |  |  |   _    _      __       _____    __    __             
                 |  |  |  | |  | |    /  \     |  _  \  |  |  /  |          
                  \  \/   | |  | |   /    \    | | | |  |  | /  /          
                 / \  \   | |__| |  /  /\  \   | |_| |  |  |/  /          
                |  |  |   |  __  | /  /__\  \  |    /   |      \           
                |  |  |   | |  | | |   __   |  |    \   |  |\   \          
                \     /   | |  | | |  |  |  |  | |\  \  |  | \   \       
                 \___/    |_|  |_| |__|  |__|  |_| \__\ |__|  \__/        
                                                                              
                      - O R C A' S   B I G   F R I E N D -                    
                                      &                                       
                       - I N T E G R A L  F E E D E R -                       
                                                                              
 v1 FN, 2020, v2 2021                                                         
------------------------------------------------------------------------------


Reading SHARK input file acrolien.897.SHARKINP.tmp ... ok
----------------------
SHARK INTEGRAL PACKAGE
----------------------

Number of atoms                             ...      8
Number of basis functions                   ...     44
Number of shells                            ...     28
Maximum angular momentum                    ...      1
Integral batch strategy                     ... SHARK/LIBINT Hybrid
RI-J (if used) integral strategy            ... SPLIT-RIJ (Revised 2003 algorithm where possible)
Printlevel                                  ...      1
Contraction scheme used                     ... SEGMENTED contraction
Coulomb Range Separation                    ... NOT USED
Exchange Range Separation                   ... Long Range
   Mu parameter                             ...  0.330000
   Scaling (regular/separated)              ...  0.190000  0.460000
Finite Nucleus Model                        ... NOT USED
Auxiliary Coulomb fitting basis             ... AVAILABLE
   # of basis functions in Aux-J            ...    240
   # of shells in Aux-J                     ...     80
   Maximum angular momentum in Aux-J        ...      4
Auxiliary J/K fitting basis                 ... NOT available
Auxiliary Correlation fitting basis         ... NOT available
Auxiliary 'external' fitting basis          ... NOT available
Integral threshold                          ...     2.500000e-11
Primitive cut-off                           ...     2.500000e-12
Primitive pair pre-selection threshold      ...     2.500000e-12

Calculating pre-screening integrals         ... done (  0.0 sec) Dimension = 28
Organizing shell pair data                  ... done (  0.0 sec)
Shell pair information
Total number of shell pairs                 ...       406
Shell pairs after pre-screening             ...       399
Total number of primitive shell pairs       ...      2724
Primitive shell pairs kept                  ...      1992
          la=0 lb=0:    204 shell pairs
          la=1 lb=0:    159 shell pairs
          la=1 lb=1:     36 shell pairs

Calculating one electron integrals          ... done (  0.0 sec)
Calculating RI/J V-Matrix + Cholesky decomp.... done (  0.0 sec)
Calculating Nuclear repulsion               ... done (  0.1 sec) ENN=    102.872706935337 Eh

SHARK setup successfully completed in   0.3 seconds

Maximum memory used throughout the entire GTOINT-calculation: 8.3 MB
-------------------------------------------------------------------------------
                                 ORCA SCF
-------------------------------------------------------------------------------

------------
SCF SETTINGS
------------
Hamiltonian:
 Density Functional     Method          .... DFT(GTOs)
 Exchange Functional    Exchange        .... WB88
 Correlation Functional Correlation     .... LYP
 LDA part of GGA corr.  LDAOpt          .... VWN-5
 Gradients option       PostSCFGGA      .... off
 Hybrid DFT is turned on
   Fraction HF Exchange ScalHFX         ....  0.190000
   Scaling of DF-GGA-X  ScalDFX         ....  0.350000
   Scaling of DF-GGA-C  ScalDFC         ....  0.810000
   Scaling of DF-LDA-C  ScalLDAC        ....  1.000000
   Perturbative correction              ....  0.000000
   Density functional embedding theory  .... OFF
 Long-range corrected/Screened/Range-Separated Hybrid DFT is turned on
   Amount of maximum screened exact exchange              ....  0.460000
   Range separation parameter mu (erf(mu*r12)/r12)        ....  0.330000
 RI-approximation to the Coulomb term is turned on
   Number of AuxJ basis functions       .... 240
   RIJ-COSX (HFX calculated with COS-X)).... on


General Settings:
 Integral files         IntName         .... acrolien.897
 Hartree-Fock type      HFTyp           .... RHF
 Total Charge           Charge          ....    0
 Multiplicity           Mult            ....    1
 Number of Electrons    NEL             ....   30
 Basis Dimension        Dim             ....   44
 Nuclear Repulsion      ENuc            ....    102.8727069353 Eh

Convergence Acceleration:
 DIIS                   CNVDIIS         .... on
   Start iteration      DIISMaxIt       ....    12
   Startup error        DIISStart       ....  0.200000
   # of expansion vecs  DIISMaxEq       ....     5
   Bias factor          DIISBfac        ....   1.050
   Max. coefficient     DIISMaxC        ....  10.000
 Trust-Rad. Augm. Hess. CNVTRAH         .... auto
   Auto Start mean grad. ratio tolernc. ....  1.125000
   Auto Start start iteration           ....    20
   Auto Start num. interpolation iter.  ....    10
   Max. Number of Micro iterations      ....    16
   Max. Number of Macro iterations      .... Maxiter - #DIIS iter
   Number of Davidson start vectors     ....     2
   Converg. threshold I  (grad. norm)   ....   1.000e-05
   Converg. threshold II (energy diff.) ....   1.000e-08
   Grad. Scal. Fac. for Micro threshold ....   0.100
   Minimum threshold for Micro iter.    ....   0.010
   NR start threshold (gradient norm)   ....   0.001
   Initial trust radius                 ....   0.400
   Minimum AH scaling param. (alpha)    ....   1.000
   Maximum AH scaling param. (alpha)    .... 1000.000
   Orbital update algorithm             .... Taylor
   White noise on init. David. guess    .... on
   Maximum white noise                  ....   0.010
   Quad. conv. algorithm                .... NR
 SOSCF                  CNVSOSCF        .... on
   Start iteration      SOSCFMaxIt      ....   150
   Startup grad/error   SOSCFStart      ....  0.003300
 Level Shifting         CNVShift        .... on
   Level shift para.    LevelShift      ....    0.2500
   Turn off err/grad.   ShiftErr        ....    0.0010
 Zerner damping         CNVZerner       .... off
 Static damping         CNVDamp         .... on
   Fraction old density DampFac         ....    0.7000
   Max. Damping (<1)    DampMax         ....    0.9800
   Min. Damping (>=0)   DampMin         ....    0.0000
   Turn off err/grad.   DampErr         ....    0.1000
 Fernandez-Rico         CNVRico         .... off

SCF Procedure:
 Maximum # iterations   MaxIter         ....   500
 SCF integral mode      SCFMode         .... Direct
   Integral package                     .... SHARK and LIBINT hybrid scheme
 Reset frequency        DirectResetFreq ....    20
 Integral Threshold     Thresh          ....  2.500e-11 Eh
 Primitive CutOff       TCut            ....  2.500e-12 Eh

Convergence Tolerance:
 Convergence Check Mode ConvCheckMode   .... Total+1el-Energy
 Convergence forced     ConvForced      .... 1
 Energy Change          TolE            ....  1.000e-08 Eh
 1-El. energy change                    ....  1.000e-05 Eh
 Orbital Gradient       TolG            ....  1.000e-05
 Orbital Rotation angle TolX            ....  1.000e-05
 DIIS Error             TolErr          ....  5.000e-07


Diagonalization of the overlap matrix:
Smallest eigenvalue                        ... 5.143e-03
Time for diagonalization                   ...    0.001 sec
Threshold for overlap eigenvalues          ... 1.000e-08
Number of eigenvalues below threshold      ... 0
Time for construction of square roots      ...    0.022 sec
Total time needed                          ...    0.023 sec

Time for model grid setup =    0.103 sec

------------------------------
INITIAL GUESS: MODEL POTENTIAL
------------------------------
Loading Hartree-Fock densities                     ... done
Calculating cut-offs                               ... done
Initializing the effective Hamiltonian             ... done
Setting up the integral package (SHARK)            ... done
Starting the Coulomb interaction                   ... done (   0.1 sec)
Reading the grid                                   ... done
Mapping shells                                     ... done
Starting the XC term evaluation                    ... done (   0.0 sec)
  promolecular density results
     # of electrons  =     29.998522851
     EX              =    -24.623408953
     EC              =     -0.967409730
     EX+EC           =    -25.590818682
Transforming the Hamiltonian                       ... done (   0.0 sec)
Diagonalizing the Hamiltonian                      ... done (   0.0 sec)
Back transforming the eigenvectors                 ... done (   0.0 sec)
Now organizing SCF variables                       ... done
                      ------------------
                      INITIAL GUESS DONE (   0.3 sec)
                      ------------------
-------------------
DFT GRID GENERATION
-------------------

General Integration Accuracy     IntAcc      ... 4.388
Radial Grid Type                 RadialGrid  ... OptM3 with GC (2021)
Angular Grid (max. ang.)         AngularGrid ... 4 (Lebedev-302)
Angular grid pruning method      GridPruning ... 4 (adaptive)
Weight generation scheme         WeightScheme... Becke
Basis function cutoff            BFCut       ... 1.0000e-11
Integration weight cutoff        WCut        ... 1.0000e-14
Angular grids for H and He will be reduced by one unit
Partially contracted basis set               ... off
Rotationally invariant grid construction     ... off

Total number of grid points                  ...    37376
Total number of batches                      ...      589
Average number of points per batch           ...       63
Average number of grid points per atom       ...     4672
Time for grid setup =    0.251 sec

--------------------
COSX GRID GENERATION
--------------------

GRIDX 1
-------
General Integration Accuracy     IntAcc      ... 3.816
Radial Grid Type                 RadialGrid  ... OptM3 with GC (2021)
Angular Grid (max. ang.)         AngularGrid ... 1 (Lebedev-50)
Angular grid pruning method      GridPruning ... 4 (adaptive)
Weight generation scheme         WeightScheme... Becke
Basis function cutoff            BFCut       ... 1.0000e-11
Integration weight cutoff        WCut        ... 1.0000e-14
Angular grids for H and He will be reduced by one unit
Partially contracted basis set               ... on
Rotationally invariant grid construction     ... off

Total number of grid points                  ...     4778
Total number of batches                      ...       79
Average number of points per batch           ...       60
Average number of grid points per atom       ...      597
UseSFitting                                  ... on

GRIDX 2
-------
General Integration Accuracy     IntAcc      ... 4.020
Radial Grid Type                 RadialGrid  ... OptM3 with GC (2021)
Angular Grid (max. ang.)         AngularGrid ... 2 (Lebedev-110)
Angular grid pruning method      GridPruning ... 4 (adaptive)
Weight generation scheme         WeightScheme... Becke
Basis function cutoff            BFCut       ... 1.0000e-11
Integration weight cutoff        WCut        ... 1.0000e-14
Angular grids for H and He will be reduced by one unit
Partially contracted basis set               ... on
Rotationally invariant grid construction     ... off

Total number of grid points                  ...    10531
Total number of batches                      ...      169
Average number of points per batch           ...       62
Average number of grid points per atom       ...     1316
UseSFitting                                  ... on

GRIDX 3
-------
General Integration Accuracy     IntAcc      ... 4.338
Radial Grid Type                 RadialGrid  ... OptM3 with GC (2021)
Angular Grid (max. ang.)         AngularGrid ... 3 (Lebedev-194)
Angular grid pruning method      GridPruning ... 4 (adaptive)
Weight generation scheme         WeightScheme... Becke
Basis function cutoff            BFCut       ... 1.0000e-11
Integration weight cutoff        WCut        ... 1.0000e-14
Angular grids for H and He will be reduced by one unit
Partially contracted basis set               ... on
Rotationally invariant grid construction     ... off

Total number of grid points                  ...    23278
Total number of batches                      ...      368
Average number of points per batch           ...       63
Average number of grid points per atom       ...     2910
UseSFitting                                  ... on

Time for X-Grid setup             =    0.603 sec

--------------
SCF ITERATIONS
--------------
ITER       Energy         Delta-E        Max-DP      RMS-DP      [F,P]     Damp
               ***  Starting incremental Fock matrix formation  ***
  0   -191.5645084852   0.000000000000 0.07492788  0.00615420  0.2155012 0.7000
  1   -191.6243114030  -0.059802917712 0.04233390  0.00391782  0.0952320 0.7000
                               ***Turning on DIIS***
  2   -191.6480586337  -0.023747230719 0.07273580  0.00628809  0.0479997 0.0000
  3   -191.6896688703  -0.041610236625 0.03159369  0.00280797  0.0447890 0.0000
  4   -191.6957184457  -0.006049575419 0.00814848  0.00078026  0.0129106 0.0000
                      *** Initiating the SOSCF procedure ***
                           *** Shutting down DIIS ***
                      *** Re-Reading the Fockian *** 
                      *** Removing any level shift *** 
ITER      Energy       Delta-E        Grad      Rot      Max-DP    RMS-DP
  5   -191.69636186  -0.0006434096  0.001076  0.001076  0.003045  0.000243
               *** Restarting incremental Fock matrix formation ***
  6   -191.69642953  -0.0000676722  0.000708  0.002154  0.001945  0.000175
  7   -191.69643607  -0.0000065401  0.000528  0.001076  0.001576  0.000120
  8   -191.69643893  -0.0000028582  0.000110  0.000197  0.000167  0.000022
  9   -191.69643905  -0.0000001279  0.000032  0.000075  0.000099  0.000009
 10   -191.69643908  -0.0000000264  0.000012  0.000052  0.000037  0.000003
 11   -191.69643908  -0.0000000036  0.000007  0.000053  0.000026  0.000003
 12   -191.69643908  -0.0000000005  0.000008  0.000011  0.000016  0.000001
 13   -191.69643908  -0.0000000001  0.000003  0.000007  0.000007  0.000001
                  ***Gradient check signals convergence***
              ***Rediagonalizing the Fockian in SOSCF/NRSCF***

               *****************************************************
               *                     SUCCESS                       *
               *           SCF CONVERGED AFTER  14 CYCLES          *
               *****************************************************

Old exchange energy                            =     -7.128378456 Eh
New exchange energy                            =     -7.128375073 Eh
Exchange energy change after final integration =      0.000003382 Eh
Total energy after final integration           =   -191.696435702 Eh
Final COS-X integration done in                =     2.032 sec

----------------
TOTAL SCF ENERGY
----------------

Total Energy       :         -191.69643570 Eh           -5216.32521 eV

Components:
Nuclear Repulsion  :          102.87270694 Eh            2799.30867 eV
Electronic Energy  :         -294.56914264 Eh           -8015.63388 eV
One Electron Energy:         -462.53329055 Eh          -12586.17070 eV
Two Electron Energy:          167.96414791 Eh            4570.53683 eV
Max COSX asymmetry :            0.00000105 Eh               0.00003 eV

Virial components:
Potential Energy   :         -382.73485698 Eh          -10414.74493 eV
Kinetic Energy     :          191.03842128 Eh            5198.41973 eV
Virial Ratio       :            2.00344441


DFT components:
N(Alpha)           :       14.999991682771 electrons
N(Beta)            :       14.999991682771 electrons
N(Total)           :       29.999983365542 electrons
E(XC)              :      -19.119641654314 Eh       
DFET-embed. en.    :        0.000000000000 Eh       

---------------
SCF CONVERGENCE
---------------

  Last Energy change         ...   -2.0364e-10  Tolerance :   1.0000e-08
  Last MAX-Density change    ...    2.2204e-15  Tolerance :   1.0000e-07
  Last RMS-Density change    ...    1.0054e-16  Tolerance :   5.0000e-09
  Last Orbital Gradient      ...    6.6051e-07  Tolerance :   1.0000e-05
  Last Orbital Rotation      ...    2.1722e-06  Tolerance :   1.0000e-05

             **** THE GBW FILE WAS UPDATED (acrolien.897.gbw) ****
             **** DENSITY acrolien.897.scfp WAS UPDATED ****
             **** ENERGY FILE WAS UPDATED (acrolien.897.en.tmp) ****
             **** THE GBW FILE WAS UPDATED (acrolien.897.gbw) ****
             **** DENSITY acrolien.897.scfp WAS UPDATED ****
----------------
ORBITAL ENERGIES
----------------

  NO   OCC          E(Eh)            E(eV) 
   0   2.0000     -19.231117      -523.3053 
   1   2.0000     -10.362780      -281.9856 
   2   2.0000     -10.286956      -279.9223 
   3   2.0000     -10.260289      -279.1967 
   4   2.0000      -1.097463       -29.8635 
   5   2.0000      -0.909591       -24.7512 
   6   2.0000      -0.758255       -20.6332 
   7   2.0000      -0.658732       -17.9250 
   8   2.0000      -0.576822       -15.6961 
   9   2.0000      -0.561922       -15.2907 
  10   2.0000      -0.486192       -13.2300 
  11   2.0000      -0.460200       -12.5227 
  12   2.0000      -0.437798       -11.9131 
  13   2.0000      -0.356278        -9.6948 
  14   2.0000      -0.326128        -8.8744 
  15   0.0000      -0.027404        -0.7457 
  16   0.0000       0.085964         2.3392 
  17   0.0000       0.163970         4.4618 
  18   0.0000       0.180311         4.9065 
  19   0.0000       0.214171         5.8279 
  20   0.0000       0.253246         6.8912 
  21   0.0000       0.296005         8.0547 
  22   0.0000       0.350420         9.5354 
  23   0.0000       0.413643        11.2558 
  24   0.0000       0.563371        15.3301 
  25   0.0000       0.576221        15.6798 
  26   0.0000       0.616132        16.7658 
  27   0.0000       0.645675        17.5697 
  28   0.0000       0.686308        18.6754 
  29   0.0000       0.695892        18.9362 
  30   0.0000       0.713914        19.4266 
  31   0.0000       0.773676        21.0528 
  32   0.0000       0.892732        24.2925 
  33   0.0000       0.917713        24.9722 
  34   0.0000       0.944199        25.6930 
  35   0.0000       1.016509        27.6606 
  36   0.0000       1.036273        28.1984 
  37   0.0000       1.107596        30.1392 
  38   0.0000       1.155858        31.4525 
  39   0.0000       1.184160        32.2226 
  40   0.0000       1.198203        32.6048 
  41   0.0000       1.233855        33.5749 
  42   0.0000       1.323175        36.0054 
  43   0.0000       1.741799        47.3968 

                    ********************************
                    * MULLIKEN POPULATION ANALYSIS *
                    ********************************

-----------------------
MULLIKEN ATOMIC CHARGES
-----------------------
   0 C :    0.175304
   1 O :   -0.409729
   2 C :   -0.108865
   3 C :   -0.229957
   4 H :    0.132466
   5 H :    0.165621
   6 H :    0.135958
   7 H :    0.139203
Sum of atomic charges:    0.0000000

--------------------------------
MULLIKEN REDUCED ORBITAL CHARGES
--------------------------------
  0 C s       :     3.200340  s :     3.200340
      pz      :     0.898593  p :     2.624357
      px      :     0.855224
      py      :     0.870540
  1 O s       :     3.967899  s :     3.967899
      pz      :     1.499542  p :     4.441830
      px      :     1.440760
      py      :     1.501528
  2 C s       :     3.193035  s :     3.193035
      pz      :     0.993311  p :     2.915830
      px      :     0.926636
      py      :     0.995882
  3 C s       :     3.174318  s :     3.174318
      pz      :     0.986805  p :     3.055640
      px      :     1.047265
      py      :     1.021570
  4 H s       :     0.867534  s :     0.867534
  5 H s       :     0.834379  s :     0.834379
  6 H s       :     0.864042  s :     0.864042
  7 H s       :     0.860797  s :     0.860797


                     *******************************
                     * LOEWDIN POPULATION ANALYSIS *
                     *******************************

----------------------
LOEWDIN ATOMIC CHARGES
----------------------
   0 C :    0.126280
   1 O :   -0.273748
   2 C :   -0.137159
   3 C :   -0.186470
   4 H :    0.095445
   5 H :    0.134322
   6 H :    0.119214
   7 H :    0.122116

-------------------------------
LOEWDIN REDUCED ORBITAL CHARGES
-------------------------------
  0 C s       :     2.992733  s :     2.992733
      pz      :     1.020543  p :     2.880987
      px      :     0.956924
      py      :     0.903521
  1 O s       :     3.693720  s :     3.693720
      pz      :     1.568948  p :     4.580028
      px      :     1.492653
      py      :     1.518427
  2 C s       :     2.964180  s :     2.964180
      pz      :     1.031819  p :     3.172979
      px      :     1.087436
      py      :     1.053724
  3 C s       :     2.935961  s :     2.935961
      pz      :     1.033105  p :     3.250509
      px      :     1.136897
      py      :     1.080507
  4 H s       :     0.904555  s :     0.904555
  5 H s       :     0.865678  s :     0.865678
  6 H s       :     0.880786  s :     0.880786
  7 H s       :     0.877884  s :     0.877884


                      *****************************
                      * MAYER POPULATION ANALYSIS *
                      *****************************

  NA   - Mulliken gross atomic population
  ZA   - Total nuclear charge
  QA   - Mulliken gross atomic charge
  VA   - Mayer's total valence
  BVA  - Mayer's bonded valence
  FA   - Mayer's free valence

  ATOM       NA         ZA         QA         VA         BVA        FA
  0 C      5.8247     6.0000     0.1753     3.7479     3.7479     0.0000
  1 O      8.4097     8.0000    -0.4097     1.9685     1.9685     0.0000
  2 C      6.1089     6.0000    -0.1089     3.8075     3.8075     0.0000
  3 C      6.2300     6.0000    -0.2300     3.9251     3.9251     0.0000
  4 H      0.8675     1.0000     0.1325     0.9244     0.9244     0.0000
  5 H      0.8344     1.0000     0.1656     0.9439     0.9439    -0.0000
  6 H      0.8640     1.0000     0.1360     0.9341     0.9341     0.0000
  7 H      0.8608     1.0000     0.1392     0.9403     0.9403    -0.0000

  Mayer bond orders larger than 0.100000
B(  0-C ,  1-O ) :   1.8428 B(  0-C ,  2-C ) :   0.9868 B(  0-C ,  4-H ) :   0.8955 
B(  2-C ,  3-C ) :   1.9267 B(  2-C ,  5-H ) :   0.9281 B(  3-C ,  6-H ) :   0.9528 
B(  3-C ,  7-H ) :   0.9506 

-------
TIMINGS
-------

Total SCF time: 0 days 0 hours 0 min 35 sec 

Total time                  ....      35.959 sec
Sum of individual times     ....      32.545 sec  ( 90.5%)

Fock matrix formation       ....      30.981 sec  ( 86.2%)
  Split-RI-J                ....       0.636 sec  (  2.1% of F)
  Chain of spheres X        ....      12.368 sec  ( 39.9% of F)
  XC integration            ....       5.599 sec  ( 18.1% of F)
    Basis function eval.    ....       1.068 sec  ( 19.1% of XC)
    Density eval.           ....       0.439 sec  (  7.8% of XC)
    XC-Functional eval.     ....       1.566 sec  ( 28.0% of XC)
    XC-Potential eval.      ....       0.247 sec  (  4.4% of XC)
Diagonalization             ....       0.003 sec  (  0.0%)
Density matrix formation    ....       0.000 sec  (  0.0%)
Population analysis         ....       0.002 sec  (  0.0%)
Initial guess               ....       0.159 sec  (  0.4%)
Orbital Transformation      ....       0.000 sec  (  0.0%)
Orbital Orthonormalization  ....       0.000 sec  (  0.0%)
DIIS solution               ....       0.001 sec  (  0.0%)
SOSCF solution              ....       0.441 sec  (  1.2%)
Grid generation             ....       0.957 sec  (  2.7%)

Maximum memory used throughout the entire SCF-calculation: 46.7 MB
------------------------------------------------------------------------------
                        ORCA TD-DFT/TDA CALCULATION
------------------------------------------------------------------------------

Input orbitals are from        ... acrolien.897.gbw
CI-vector output               ... acrolien.897.cis
Tamm-Dancoff approximation     ... operative
CIS-Integral strategy          ... AO-integrals
Integral handling              ... AO integral Direct
Max. core memory used          ... 512 MB
Reference state                ... RHF
Generation of triplets         ... off
Follow IRoot                   ... off
Number of operators            ... 1
Orbital ranges used for CIS calculation:
 Operator 0:  Orbitals   4... 14  to  15... 43
XAS localization array:
 Operator 0:  Orbitals  -1... -1

-------------------
XC-INTEGRATION GRID
-------------------

General Integration Accuracy     IntAcc      ... 3.467
Radial Grid Type                 RadialGrid  ... OptM3 with GC (2021)
Angular Grid (max. ang.)         AngularGrid ... 1 (Lebedev-50)
Angular grid pruning method      GridPruning ... 4 (adaptive)
Weight generation scheme         WeightScheme... Becke
Basis function cutoff            BFCut       ... 1.0000e-11
Integration weight cutoff        WCut        ... 1.0000e-14
Angular grids for H and He will be reduced by one unit
Partially contracted basis set               ... off
Rotationally invariant grid construction     ... off

Total number of grid points                  ...     5473
Total number of batches                      ...       91
Average number of points per batch           ...       60
Average number of grid points per atom       ...      684

---------------------
COSX-INTEGRATION GRID
---------------------

General Integration Accuracy     IntAcc      ... 3.067
Radial Grid Type                 RadialGrid  ... OptM3 with GC (2021)
Angular Grid (max. ang.)         AngularGrid ... 1 (Lebedev-50)
Angular grid pruning method      GridPruning ... 4 (adaptive)
Weight generation scheme         WeightScheme... Becke
Basis function cutoff            BFCut       ... 1.0000e-11
Integration weight cutoff        WCut        ... 1.0000e-14
Angular grids for H and He will be reduced by one unit
Partially contracted basis set               ... on
Rotationally invariant grid construction     ... off

Total number of grid points                  ...     2496
Total number of batches                      ...       45
Average number of points per batch           ...       55
Average number of grid points per atom       ...      312

---------------
TD-DFT XC SETUP
---------------

DFT calculation                         ... on
Name of the grid file                   ... acrolien.897.grid_cis.tmp
Exchange functional (TD-DFT)            ... WB88
Correlation functional (TD-DFT)         ... LYP
 LDA part of GGA corr.  LDAOpt (TD-DFT) ... VWN-5
Hybrid DFT                              ... on
   Exchange mixing (TD-DFT)             ...  0.190
   GGA exch. scaling (TD-DFT)           ...  0.350
   GGA corr. scaling (TD-DFT)           ...  0.810
Range-Separated Exchange                ... on
   Range Range separation parameter mu  .... 0.330
   Max. amount of RS exchange (TD-DFT)  ...  0.460

Building densities             ... done
Calculating rho(r) on the grid ... done
Building xc-kernel on the grid ... done
                    *** TD-DFT CALCULATION INITIALIZED ***

------------------------
DAVIDSON-DIAGONALIZATION
------------------------

Dimension of the eigenvalue problem            ...    319
Number of roots to be determined               ...      1
Maximum size of the expansion space            ...     10
Maximum number of iterations                   ...    100
Convergence tolerance for the residual         ...    2.500e-07
Convergence tolerance for the energies         ...    2.500e-07
Orthogonality tolerance                        ...    1.000e-14
Level Shift                                    ...    0.000e+00
Constructing the preconditioner                ... o.k.
Building the initial guess                     ... o.k.
Number of trial vectors determined             ...     10


                       ****Iteration    0****

   Memory handling for direct AO based CIS:
   Memory per vector needed      ...     1 MB
   Memory needed                 ...     0 MB
   Memory available              ...   512 MB
   Number of vectors per batch   ...   512
   Number of batches             ...     1
   Time for densities:            0.000
   Time for RI-J (Direct):        0.042
   Time for K (COSX):             0.250
   Time for XC-Integration:       0.038
   Time for Sigma-Completion:     0.000
   Size of expansion space: 3
   Lowest Energy          :     0.130375928748
   Maximum Energy change  :     0.130375928748 (vector 0)
   Maximum residual norm  :     0.002391815073

                       ****Iteration    1****
   Time for densities:            0.000
   Time for RI-J (Direct):        0.033
   Time for K (COSX):             0.239
   Time for XC-Integration:       0.022
   Time for Sigma-Completion:     0.000
   Size of expansion space: 4
   Lowest Energy          :     0.121116825731
   Maximum Energy change  :     0.009259103017 (vector 0)
   Maximum residual norm  :     0.000394675477

                       ****Iteration    2****
   Time for densities:            0.000
   Time for RI-J (Direct):        0.033
   Time for K (COSX):             0.241
   Time for XC-Integration:       0.022
   Time for Sigma-Completion:     0.000
   Size of expansion space: 5
   Lowest Energy          :     0.120602220840
   Maximum Energy change  :     0.000514604891 (vector 0)
   Maximum residual norm  :     0.000038898251

                       ****Iteration    3****
   Time for densities:            0.000
   Time for RI-J (Direct):        0.033
   Time for K (COSX):             0.241
   Time for XC-Integration:       0.022
   Time for Sigma-Completion:     0.000
   Size of expansion space: 6
   Lowest Energy          :     0.120552056110
   Maximum Energy change  :     0.000050164730 (vector 0)
   Maximum residual norm  :     0.000001823335

                       ****Iteration    4****
   Time for densities:            0.000
   Time for RI-J (Direct):        0.033
   Time for K (COSX):             0.241
   Time for XC-Integration:       0.022
   Time for Sigma-Completion:     0.000
   Size of expansion space: 7
   Lowest Energy          :     0.120549591036
   Maximum Energy change  :     0.000002465073 (vector 0)
   Maximum residual norm  :     0.000000143439

      *** CONVERGENCE OF RESIDUAL NORM REACHED ***

Storing the converged CI vectors               ... acrolien.897.cis1

                 *** DAVIDSON DONE ***

Total time for solving the CIS problem:     1.522sec

------------------------------------
TD-DFT/TDA EXCITED STATES (SINGLETS)
------------------------------------

the weight of the individual excitations are printed if larger than 1.0e-02

STATE  1:  E=   0.120550 au      3.280 eV    26457.6 cm**-1 <S**2> =   0.000000
    13a ->  15a  :     0.015959 (c= -0.12632972)
    14a ->  15a  :     0.927794 (c=  0.96322072)
    14a ->  16a  :     0.048305 (c=  0.21978353)


-----------------------------
TD-DFT/TDA-EXCITATION SPECTRA
-----------------------------

Center of mass = ( -1.0055, -0.1790,  0.4115)
Calculating the Dipole integrals                  ... done
Transforming integrals                            ... done
Calculating the Linear Momentum integrals         ... done
Transforming integrals                            ... done
Calculating angular momentum integrals            ... done
Transforming integrals                            ... done

-----------------------------------------------------------------------------
         ABSORPTION SPECTRUM VIA TRANSITION ELECTRIC DIPOLE MOMENTS
-----------------------------------------------------------------------------
State   Energy    Wavelength  fosc         T2        TX        TY        TZ  
        (cm-1)      (nm)                 (au**2)    (au)      (au)      (au) 
-----------------------------------------------------------------------------
   1   26457.6    378.0   0.000512319   0.00637  -0.07576   0.01197   0.02216

-----------------------------------------------------------------------------
         ABSORPTION SPECTRUM VIA TRANSITION VELOCITY DIPOLE MOMENTS
-----------------------------------------------------------------------------
State   Energy    Wavelength   fosc        P2         PX        PY        PZ  
        (cm-1)      (nm)                 (au**2)     (au)      (au)      (au) 
-----------------------------------------------------------------------------
   1   26457.6    378.0   0.000791530   0.00014  -0.00798   0.00127   0.00882

-------------------------------------------------------------------
                             CD SPECTRUM
-------------------------------------------------------------------
State  Energy     Wavelength     R         MX        MY        MZ   
       (cm-1)       (nm)     (1e40*cgs)   (au)      (au)      (au)  
-------------------------------------------------------------------
   1   26457.6    378.0    -14.77989   0.33632   0.09871  -0.31811

-------------------------------------------------------------------
         CD SPECTRUM VIA TRANSITION VELOCITY DIPOLE MOMENTS        
-------------------------------------------------------------------
State  Energy     Wavelength     R         MX        MY        MZ   
       (cm-1)       (nm)     (1e40*cgs)   (au)      (au)      (au)  
-------------------------------------------------------------------
   1   26457.6    378.0    -20.98142   0.33632   0.09871  -0.31811

Total run time:        1.920 sec

           *** ORCA-CIS/TD-DFT FINISHED WITHOUT ERROR ***

Maximum memory used throughout the entire CIS-calculation: 44.1 MB

-----------------------
CIS/TD-DFT TOTAL ENERGY
-----------------------

    E(SCF)  =   -191.696435702 Eh
    DE(CIS) =      0.120549591 Eh (Root  1)
    ----------------------------- ---------
    E(tot)  =   -191.575886111 Eh


-------------------------   --------------------
FINAL SINGLE POINT ENERGY      -191.575886111069
-------------------------   --------------------


                            ***************************************
                            *     ORCA property calculations      *
                            ***************************************

                                    ---------------------
                                    Active property flags
                                    ---------------------
   (+) Dipole Moment


------------------------------------------------------------------------------
                       ORCA ELECTRIC PROPERTIES CALCULATION
------------------------------------------------------------------------------

Dipole Moment Calculation                       ... on
Quadrupole Moment Calculation                   ... off
Polarizability Calculation                      ... off
GBWName                                         ... acrolien.897.gbw
Electron density                                ... acrolien.897.scfp
The origin for moment calculation is the CENTER OF MASS  = (-1.005497, -0.179046  0.411500)

-------------
DIPOLE MOMENT
-------------
                                X             Y             Z
Electronic contribution:     -2.69091      -0.41210       0.80798
Nuclear contribution   :      3.83209       0.67445      -1.56840
                        -----------------------------------------
Total Dipole Moment    :      1.14119       0.26235      -0.76041
                        -----------------------------------------
Magnitude (a.u.)       :      1.39620
Magnitude (Debye)      :      3.54885



--------------------
Rotational spectrum 
--------------------
 
Rotational constants in cm-1:     1.366674     0.154590     0.145818 
Rotational constants in MHz : 40971.845364  4634.476811  4371.502435 

 Dipole components along the rotational axes: 
x,y,z [a.u.] :    -1.319766     0.361567     0.277222 
x,y,z [Debye]:    -3.354579     0.919031     0.704643 

 

Timings for individual modules:

Sum of individual times         ...       38.211 sec (=   0.637 min)
GTO integral calculation        ...        0.312 sec (=   0.005 min)   0.8 %
SCF iterations                  ...       35.971 sec (=   0.600 min)  94.1 %
CIS module                      ...        1.928 sec (=   0.032 min)   5.0 %
                             ****ORCA TERMINATED NORMALLY****
TOTAL RUN TIME: 0 days 0 hours 0 minutes 38 seconds 442 msec
