
                                 *****************
                                 * O   R   C   A *
                                 *****************

                                            #,                                       
                                            ###                                      
                                            ####                                     
                                            #####                                    
                                            ######                                   
                                           ########,                                 
                                     ,,################,,,,,                         
                               ,,#################################,,                 
                          ,,##########################################,,             
                       ,#########################################, ''#####,          
                    ,#############################################,,   '####,        
                  ,##################################################,,,,####,       
                ,###########''''           ''''###############################       
              ,#####''   ,,,,##########,,,,          '''####'''          '####       
            ,##' ,,,,###########################,,,                        '##       
           ' ,,###''''                  '''############,,,                           
         ,,##''                                '''############,,,,        ,,,,,,###''
      ,#''                                            '''#######################'''  
     '                                                          ''''####''''         
             ,#######,   #######,   ,#######,      ##                                
            ,#'     '#,  ##    ##  ,#'     '#,    #''#        ######   ,####,        
            ##       ##  ##   ,#'  ##            #'  '#       #        #'  '#        
            ##       ##  #######   ##           ,######,      #####,   #    #        
            '#,     ,#'  ##    ##  '#,     ,#' ,#      #,         ##   #,  ,#        
             '#######'   ##     ##  '#######'  #'      '#     #####' # '####'        



                  #######################################################
                  #                        -***-                        #
                  #          Department of theory and spectroscopy      #
                  #    Directorship and core code : Frank Neese         #
                  #        Max Planck Institute fuer Kohlenforschung    #
                  #                Kaiser Wilhelm Platz 1               #
                  #                 D-45470 Muelheim/Ruhr               #
                  #                      Germany                        #
                  #                                                     #
                  #                  All rights reserved                #
                  #                        -***-                        #
                  #######################################################


                         Program Version 5.0.3 -  RELEASE  -


 With contributions from (in alphabetic order):
   Daniel Aravena         : Magnetic Suceptibility
   Michael Atanasov       : Ab Initio Ligand Field Theory (pilot matlab implementation)
   Alexander A. Auer      : GIAO ZORA, VPT2 properties, NMR spectrum
   Ute Becker             : Parallelization
   Giovanni Bistoni       : ED, misc. LED, open-shell LED, HFLD
   Martin Brehm           : Molecular dynamics
   Dmytro Bykov           : SCF Hessian
   Vijay G. Chilkuri      : MRCI spin determinant printing, contributions to CSF-ICE
   Dipayan Datta          : RHF DLPNO-CCSD density
   Achintya Kumar Dutta   : EOM-CC, STEOM-CC
   Dmitry Ganyushin       : Spin-Orbit,Spin-Spin,Magnetic field MRCI
   Miquel Garcia          : C-PCM and meta-GGA Hessian, CC/C-PCM, Gaussian charge scheme
   Yang Guo               : DLPNO-NEVPT2, F12-NEVPT2, CIM, IAO-localization
   Andreas Hansen         : Spin unrestricted coupled pair/coupled cluster methods
   Benjamin Helmich-Paris : MC-RPA, TRAH-SCF, COSX integrals
   Lee Huntington         : MR-EOM, pCC
   Robert Izsak           : Overlap fitted RIJCOSX, COSX-SCS-MP3, EOM
   Marcus Kettner         : VPT2
   Christian Kollmar      : KDIIS, OOCD, Brueckner-CCSD(T), CCSD density, CASPT2, CASPT2-K
   Simone Kossmann        : Meta GGA functionals, TD-DFT gradient, OOMP2, MP2 Hessian
   Martin Krupicka        : Initial AUTO-CI
   Lucas Lang             : DCDCAS
   Marvin Lechner         : AUTO-CI (C++ implementation), FIC-MRCC
   Dagmar Lenk            : GEPOL surface, SMD
   Dimitrios Liakos       : Extrapolation schemes; Compound Job, initial MDCI parallelization
   Dimitrios Manganas     : Further ROCIS development; embedding schemes
   Dimitrios Pantazis     : SARC Basis sets
   Anastasios Papadopoulos: AUTO-CI, single reference methods and gradients
   Taras Petrenko         : DFT Hessian,TD-DFT gradient, ASA, ECA, R-Raman, ABS, FL, XAS/XES, NRVS
   Peter Pinski           : DLPNO-MP2, DLPNO-MP2 Gradient
   Christoph Reimann      : Effective Core Potentials
   Marius Retegan         : Local ZFS, SOC
   Christoph Riplinger    : Optimizer, TS searches, QM/MM, DLPNO-CCSD(T), (RO)-DLPNO pert. Triples
   Tobias Risthaus        : Range-separated hybrids, TD-DFT gradient, RPA, STAB
   Michael Roemelt        : Original ROCIS implementation
   Masaaki Saitow         : Open-shell DLPNO-CCSD energy and density
   Barbara Sandhoefer     : DKH picture change effects
   Avijit Sen             : IP-ROCIS
   Kantharuban Sivalingam : CASSCF convergence, NEVPT2, FIC-MRCI
   Bernardo de Souza      : ESD, SOC TD-DFT
   Georgi Stoychev        : AutoAux, RI-MP2 NMR, DLPNO-MP2 response
   Willem Van den Heuvel  : Paramagnetic NMR
   Boris Wezisla          : Elementary symmetry handling
   Frank Wennmohs         : Technical directorship


 We gratefully acknowledge several colleagues who have allowed us to
 interface, adapt or use parts of their codes:
   Stefan Grimme, W. Hujo, H. Kruse, P. Pracht,  : VdW corrections, initial TS optimization,
                  C. Bannwarth, S. Ehlert          DFT functionals, gCP, sTDA/sTD-DF
   Ed Valeev, F. Pavosevic, A. Kumar             : LibInt (2-el integral package), F12 methods
   Garnet Chan, S. Sharma, J. Yang, R. Olivares  : DMRG
   Ulf Ekstrom                                   : XCFun DFT Library
   Mihaly Kallay                                 : mrcc  (arbitrary order and MRCC methods)
   Jiri Pittner, Ondrej Demel                    : Mk-CCSD
   Frank Weinhold                                : gennbo (NPA and NBO analysis)
   Christopher J. Cramer and Donald G. Truhlar   : smd solvation model
   Lars Goerigk                                  : TD-DFT with DH, B97 family of functionals
   V. Asgeirsson, H. Jonsson                     : NEB implementation
   FAccTs GmbH                                   : IRC, NEB, NEB-TS, DLPNO-Multilevel, CI-OPT
                                                   MM, QMMM, 2- and 3-layer-ONIOM, Crystal-QMMM,
                                                   LR-CPCM, SF, NACMEs, symmetry and pop. for TD-DFT,
                                                   nearIR, NL-DFT gradient (VV10), updates on ESD,
                                                   ML-optimized integration grids
   S Lehtola, MJT Oliveira, MAL Marques          : LibXC Library
   Liviu Ungur et al                             : ANISO software


 Your calculation uses the libint2 library for the computation of 2-el integrals
 For citations please refer to: http://libint.valeyev.net

 Your ORCA version has been built with support for libXC version: 5.1.0
 For citations please refer to: https://tddft.org/programs/libxc/

 This ORCA versions uses:
   CBLAS   interface :  Fast vector & matrix operations
   LAPACKE interface :  Fast linear algebra routines
   SCALAPACK package :  Parallel linear algebra routines
   Shared memory     :  Shared parallel matrices
   BLAS/LAPACK       :  OpenBLAS 0.3.15  USE64BITINT DYNAMIC_ARCH NO_AFFINITY Haswell SINGLE_THREADED
        Core in use  :  Haswell
   Copyright (c) 2011-2014, The OpenBLAS Project


XCFun DFT library Copyright 2009-2010 Ulf Ekstrom and contributors.
See http://admol.org/xcfun for more information.
This is free software; see the source code for copying conditions.
There is ABSOLUTELY NO WARRANTY; not even for MERCHANTABILITY or FITNESS FOR A PARTICULAR PURPOSE.
For details see the documentation.
Scientific users of this library should cite U. Ekstrom, L. Visscher, R. Bast, A. J. Thorvaldsen and K. Ruud;
J.Chem.Theor.Comp. 2010, DOI: 10.1021/ct100117s
XCFun Version 0.99 

================================================================================

----- Orbital basis set information -----
Your calculation utilizes the basis: 6-31G
   H-He, Li-Ne : W. J. Hehre, R. Ditchfield and J.A. Pople, J. Chem. Phys. 56, 2257 (1972).
                 Note: He and Ne are unpublished basis sets taken from the Gaussian program.
                 Note: Li and B from J. D. Dill and J. A. Pople, J. Chem. Phys. 62, 2921 (1975).
   Na - Ar     : M. M. Francl, W. J. Pietro, W. J. Hehre, J. S. Binkley, M. S. Gordon, 
                 D. J. DeFrees and J. A. Pople, J. Chem. Phys. 77, 3654 (1982).
   K - Zn      : V. A. Rassolov, J. A. Pople, M. A. Ratner, and T. L. Windus, J. Chem. Phys. 109, 1223 (1998).

----- AuxJ basis set information -----
Your calculation utilizes the auxiliary basis: def2/J
   F. Weigend, Phys. Chem. Chem. Phys. 8, 1057 (2006).

================================================================================
                                        WARNINGS
                       Please study these warnings very carefully!
================================================================================

INFO   : Checking CIS options ...

INFO   : the flag for use of the SHARK integral package has been found!

================================================================================
                                       INPUT FILE
================================================================================
NAME = acrolien.634.com
|  1> ! RKS CAM-B3LYP 6-31G
|  2> !TightSCF
|  3> %scf
|  4>  ConvForced true
|  5>  convergence tight
|  6>  MaxIter 500
|  7> end
|  8>  
|  9> %tddft 
| 10>  nroots 1
| 11> end
| 12> 
| 13> # 	26857
| 14> * xyz 0 1
| 15> 		C   -0.550690  -0.390326   0.027260
| 16> 		O   -0.514745  -1.582529  -0.006480
| 17> 		C    0.602324   0.421908  -0.060787
| 18> 		C    1.782050  -0.220849   0.046527
| 19> 		H   -1.543395   0.105252   0.121467
| 20> 		H    0.321947   1.479250  -0.009514
| 21> 		H    1.759739  -1.444133  -0.271117
| 22> 		H    2.727794   0.498648   0.114707
| 23> *
| 24> 
| 25>                          ****END OF INPUT****
================================================================================

                       ****************************
                       * Single Point Calculation *
                       ****************************

---------------------------------
CARTESIAN COORDINATES (ANGSTROEM)
---------------------------------
  C     -0.550690   -0.390326    0.027260
  O     -0.514745   -1.582529   -0.006480
  C      0.602324    0.421908   -0.060787
  C      1.782050   -0.220849    0.046527
  H     -1.543395    0.105252    0.121467
  H      0.321947    1.479250   -0.009514
  H      1.759739   -1.444133   -0.271117
  H      2.727794    0.498648    0.114707

----------------------------
CARTESIAN COORDINATES (A.U.)
----------------------------
  NO LB      ZA    FRAG     MASS         X           Y           Z
   0 C     6.0000    0    12.011   -1.040653   -0.737609    0.051514
   1 O     8.0000    0    15.999   -0.972727   -2.990546   -0.012245
   2 C     6.0000    0    12.011    1.138227    0.797291   -0.114871
   3 C     6.0000    0    12.011    3.367586   -0.417344    0.087923
   4 H     1.0000    0     1.008   -2.916594    0.198897    0.229539
   5 H     1.0000    0     1.008    0.608392    2.795377   -0.017979
   6 H     1.0000    0     1.008    3.325425   -2.729016   -0.512337
   7 H     1.0000    0     1.008    5.154784    0.942308    0.216765

--------------------------------
INTERNAL COORDINATES (ANGSTROEM)
--------------------------------
 C      0   0   0     0.000000000000     0.00000000     0.00000000
 O      1   0   0     1.193221866978     0.00000000     0.00000000
 C      1   2   0     1.413123359499   123.22629823     0.00000000
 C      3   1   2     1.347741180910   115.79380229   348.89085880
 H      1   2   3     1.113524014091   118.28916763   179.30110470
 H      3   1   2     1.095085516123   110.06869175   179.88453656
 H      4   3   1     1.264048747522   115.21872540    24.63904632
 H      4   3   1     1.190275665107   114.31681941   187.74658334

---------------------------
INTERNAL COORDINATES (A.U.)
---------------------------
 C      0   0   0     0.000000000000     0.00000000     0.00000000
 O      1   0   0     2.254862545594     0.00000000     0.00000000
 C      1   2   0     2.670416142899   123.22629823     0.00000000
 C      3   1   2     2.546861731328   115.79380229   348.89085880
 H      1   2   3     2.104255430177   118.28916763   179.30110470
 H      3   1   2     2.069411718696   110.06869175   179.88453656
 H      4   3   1     2.388705952744   115.21872540    24.63904632
 H      4   3   1     2.249295030922   114.31681941   187.74658334

---------------------
BASIS SET INFORMATION
---------------------
There are 3 groups of distinct atoms

 Group   1 Type C   : 10s4p contracted to 3s2p pattern {631/31}
 Group   2 Type O   : 10s4p contracted to 3s2p pattern {631/31}
 Group   3 Type H   : 4s contracted to 2s pattern {31}

Atom   0C    basis set group =>   1
Atom   1O    basis set group =>   2
Atom   2C    basis set group =>   1
Atom   3C    basis set group =>   1
Atom   4H    basis set group =>   3
Atom   5H    basis set group =>   3
Atom   6H    basis set group =>   3
Atom   7H    basis set group =>   3
---------------------------------
AUXILIARY/J BASIS SET INFORMATION
---------------------------------
There are 3 groups of distinct atoms

 Group   1 Type C   : 12s5p4d2f1g contracted to 6s4p3d1f1g pattern {711111/2111/211/2/1}
 Group   2 Type O   : 12s5p4d2f1g contracted to 6s4p3d1f1g pattern {711111/2111/211/2/1}
 Group   3 Type H   : 5s2p1d contracted to 3s1p1d pattern {311/2/1}

Atom   0C    basis set group =>   1
Atom   1O    basis set group =>   2
Atom   2C    basis set group =>   1
Atom   3C    basis set group =>   1
Atom   4H    basis set group =>   3
Atom   5H    basis set group =>   3
Atom   6H    basis set group =>   3
Atom   7H    basis set group =>   3
------------------------------------------------------------------------------
                           ORCA GTO INTEGRAL CALCULATION
                           -- RI-GTO INTEGRALS CHOSEN --
------------------------------------------------------------------------------
------------------------------------------------------------------------------
                   ___                                                        
                  /   \      - P O W E R E D   B Y -                         
                 /     \                                                     
                 |  |  |   _    _      __       _____    __    __             
                 |  |  |  | |  | |    /  \     |  _  \  |  |  /  |          
                  \  \/   | |  | |   /    \    | | | |  |  | /  /          
                 / \  \   | |__| |  /  /\  \   | |_| |  |  |/  /          
                |  |  |   |  __  | /  /__\  \  |    /   |      \           
                |  |  |   | |  | | |   __   |  |    \   |  |\   \          
                \     /   | |  | | |  |  |  |  | |\  \  |  | \   \       
                 \___/    |_|  |_| |__|  |__|  |_| \__\ |__|  \__/        
                                                                              
                      - O R C A' S   B I G   F R I E N D -                    
                                      &                                       
                       - I N T E G R A L  F E E D E R -                       
                                                                              
 v1 FN, 2020, v2 2021                                                         
------------------------------------------------------------------------------


Reading SHARK input file acrolien.634.SHARKINP.tmp ... ok
----------------------
SHARK INTEGRAL PACKAGE
----------------------

Number of atoms                             ...      8
Number of basis functions                   ...     44
Number of shells                            ...     28
Maximum angular momentum                    ...      1
Integral batch strategy                     ... SHARK/LIBINT Hybrid
RI-J (if used) integral strategy            ... SPLIT-RIJ (Revised 2003 algorithm where possible)
Printlevel                                  ...      1
Contraction scheme used                     ... SEGMENTED contraction
Coulomb Range Separation                    ... NOT USED
Exchange Range Separation                   ... Long Range
   Mu parameter                             ...  0.330000
   Scaling (regular/separated)              ...  0.190000  0.460000
Finite Nucleus Model                        ... NOT USED
Auxiliary Coulomb fitting basis             ... AVAILABLE
   # of basis functions in Aux-J            ...    240
   # of shells in Aux-J                     ...     80
   Maximum angular momentum in Aux-J        ...      4
Auxiliary J/K fitting basis                 ... NOT available
Auxiliary Correlation fitting basis         ... NOT available
Auxiliary 'external' fitting basis          ... NOT available
Integral threshold                          ...     2.500000e-11
Primitive cut-off                           ...     2.500000e-12
Primitive pair pre-selection threshold      ...     2.500000e-12

Calculating pre-screening integrals         ... done (  0.0 sec) Dimension = 28
Organizing shell pair data                  ... done (  0.0 sec)
Shell pair information
Total number of shell pairs                 ...       406
Shell pairs after pre-screening             ...       402
Total number of primitive shell pairs       ...      2724
Primitive shell pairs kept                  ...      2026
          la=0 lb=0:    206 shell pairs
          la=1 lb=0:    160 shell pairs
          la=1 lb=1:     36 shell pairs

Calculating one electron integrals          ... done (  0.0 sec)
Calculating RI/J V-Matrix + Cholesky decomp.... done (  0.0 sec)
Calculating Nuclear repulsion               ... done (  0.0 sec) ENN=    106.538249300997 Eh

SHARK setup successfully completed in   0.3 seconds

Maximum memory used throughout the entire GTOINT-calculation: 8.3 MB
-------------------------------------------------------------------------------
                                 ORCA SCF
-------------------------------------------------------------------------------

------------
SCF SETTINGS
------------
Hamiltonian:
 Density Functional     Method          .... DFT(GTOs)
 Exchange Functional    Exchange        .... WB88
 Correlation Functional Correlation     .... LYP
 LDA part of GGA corr.  LDAOpt          .... VWN-5
 Gradients option       PostSCFGGA      .... off
 Hybrid DFT is turned on
   Fraction HF Exchange ScalHFX         ....  0.190000
   Scaling of DF-GGA-X  ScalDFX         ....  0.350000
   Scaling of DF-GGA-C  ScalDFC         ....  0.810000
   Scaling of DF-LDA-C  ScalLDAC        ....  1.000000
   Perturbative correction              ....  0.000000
   Density functional embedding theory  .... OFF
 Long-range corrected/Screened/Range-Separated Hybrid DFT is turned on
   Amount of maximum screened exact exchange              ....  0.460000
   Range separation parameter mu (erf(mu*r12)/r12)        ....  0.330000
 RI-approximation to the Coulomb term is turned on
   Number of AuxJ basis functions       .... 240
   RIJ-COSX (HFX calculated with COS-X)).... on


General Settings:
 Integral files         IntName         .... acrolien.634
 Hartree-Fock type      HFTyp           .... RHF
 Total Charge           Charge          ....    0
 Multiplicity           Mult            ....    1
 Number of Electrons    NEL             ....   30
 Basis Dimension        Dim             ....   44
 Nuclear Repulsion      ENuc            ....    106.5382493010 Eh

Convergence Acceleration:
 DIIS                   CNVDIIS         .... on
   Start iteration      DIISMaxIt       ....    12
   Startup error        DIISStart       ....  0.200000
   # of expansion vecs  DIISMaxEq       ....     5
   Bias factor          DIISBfac        ....   1.050
   Max. coefficient     DIISMaxC        ....  10.000
 Trust-Rad. Augm. Hess. CNVTRAH         .... auto
   Auto Start mean grad. ratio tolernc. ....  1.125000
   Auto Start start iteration           ....    20
   Auto Start num. interpolation iter.  ....    10
   Max. Number of Micro iterations      ....    16
   Max. Number of Macro iterations      .... Maxiter - #DIIS iter
   Number of Davidson start vectors     ....     2
   Converg. threshold I  (grad. norm)   ....   1.000e-05
   Converg. threshold II (energy diff.) ....   1.000e-08
   Grad. Scal. Fac. for Micro threshold ....   0.100
   Minimum threshold for Micro iter.    ....   0.010
   NR start threshold (gradient norm)   ....   0.001
   Initial trust radius                 ....   0.400
   Minimum AH scaling param. (alpha)    ....   1.000
   Maximum AH scaling param. (alpha)    .... 1000.000
   Orbital update algorithm             .... Taylor
   White noise on init. David. guess    .... on
   Maximum white noise                  ....   0.010
   Quad. conv. algorithm                .... NR
 SOSCF                  CNVSOSCF        .... on
   Start iteration      SOSCFMaxIt      ....   150
   Startup grad/error   SOSCFStart      ....  0.003300
 Level Shifting         CNVShift        .... on
   Level shift para.    LevelShift      ....    0.2500
   Turn off err/grad.   ShiftErr        ....    0.0010
 Zerner damping         CNVZerner       .... off
 Static damping         CNVDamp         .... on
   Fraction old density DampFac         ....    0.7000
   Max. Damping (<1)    DampMax         ....    0.9800
   Min. Damping (>=0)   DampMin         ....    0.0000
   Turn off err/grad.   DampErr         ....    0.1000
 Fernandez-Rico         CNVRico         .... off

SCF Procedure:
 Maximum # iterations   MaxIter         ....   500
 SCF integral mode      SCFMode         .... Direct
   Integral package                     .... SHARK and LIBINT hybrid scheme
 Reset frequency        DirectResetFreq ....    20
 Integral Threshold     Thresh          ....  2.500e-11 Eh
 Primitive CutOff       TCut            ....  2.500e-12 Eh

Convergence Tolerance:
 Convergence Check Mode ConvCheckMode   .... Total+1el-Energy
 Convergence forced     ConvForced      .... 1
 Energy Change          TolE            ....  1.000e-08 Eh
 1-El. energy change                    ....  1.000e-05 Eh
 Orbital Gradient       TolG            ....  1.000e-05
 Orbital Rotation angle TolX            ....  1.000e-05
 DIIS Error             TolErr          ....  5.000e-07


Diagonalization of the overlap matrix:
Smallest eigenvalue                        ... 4.466e-03
Time for diagonalization                   ...    0.001 sec
Threshold for overlap eigenvalues          ... 1.000e-08
Number of eigenvalues below threshold      ... 0
Time for construction of square roots      ...    0.061 sec
Total time needed                          ...    0.062 sec

Time for model grid setup =    0.052 sec

------------------------------
INITIAL GUESS: MODEL POTENTIAL
------------------------------
Loading Hartree-Fock densities                     ... done
Calculating cut-offs                               ... done
Initializing the effective Hamiltonian             ... done
Setting up the integral package (SHARK)            ... done
Starting the Coulomb interaction                   ... done (   0.0 sec)
Reading the grid                                   ... done
Mapping shells                                     ... done
Starting the XC term evaluation                    ... done (   0.0 sec)
  promolecular density results
     # of electrons  =     29.999057450
     EX              =    -24.592230937
     EC              =     -0.967128248
     EX+EC           =    -25.559359184
Transforming the Hamiltonian                       ... done (   0.0 sec)
Diagonalizing the Hamiltonian                      ... done (   0.0 sec)
Back transforming the eigenvectors                 ... done (   0.0 sec)
Now organizing SCF variables                       ... done
                      ------------------
                      INITIAL GUESS DONE (   0.2 sec)
                      ------------------
-------------------
DFT GRID GENERATION
-------------------

General Integration Accuracy     IntAcc      ... 4.388
Radial Grid Type                 RadialGrid  ... OptM3 with GC (2021)
Angular Grid (max. ang.)         AngularGrid ... 4 (Lebedev-302)
Angular grid pruning method      GridPruning ... 4 (adaptive)
Weight generation scheme         WeightScheme... Becke
Basis function cutoff            BFCut       ... 1.0000e-11
Integration weight cutoff        WCut        ... 1.0000e-14
Angular grids for H and He will be reduced by one unit
Partially contracted basis set               ... off
Rotationally invariant grid construction     ... off

Total number of grid points                  ...    37372
Total number of batches                      ...      588
Average number of points per batch           ...       63
Average number of grid points per atom       ...     4672
Time for grid setup =    0.399 sec

--------------------
COSX GRID GENERATION
--------------------

GRIDX 1
-------
General Integration Accuracy     IntAcc      ... 3.816
Radial Grid Type                 RadialGrid  ... OptM3 with GC (2021)
Angular Grid (max. ang.)         AngularGrid ... 1 (Lebedev-50)
Angular grid pruning method      GridPruning ... 4 (adaptive)
Weight generation scheme         WeightScheme... Becke
Basis function cutoff            BFCut       ... 1.0000e-11
Integration weight cutoff        WCut        ... 1.0000e-14
Angular grids for H and He will be reduced by one unit
Partially contracted basis set               ... on
Rotationally invariant grid construction     ... off

Total number of grid points                  ...     4803
Total number of batches                      ...       79
Average number of points per batch           ...       60
Average number of grid points per atom       ...      600
UseSFitting                                  ... on

GRIDX 2
-------
General Integration Accuracy     IntAcc      ... 4.020
Radial Grid Type                 RadialGrid  ... OptM3 with GC (2021)
Angular Grid (max. ang.)         AngularGrid ... 2 (Lebedev-110)
Angular grid pruning method      GridPruning ... 4 (adaptive)
Weight generation scheme         WeightScheme... Becke
Basis function cutoff            BFCut       ... 1.0000e-11
Integration weight cutoff        WCut        ... 1.0000e-14
Angular grids for H and He will be reduced by one unit
Partially contracted basis set               ... on
Rotationally invariant grid construction     ... off

Total number of grid points                  ...    10560
Total number of batches                      ...      168
Average number of points per batch           ...       62
Average number of grid points per atom       ...     1320
UseSFitting                                  ... on

GRIDX 3
-------
General Integration Accuracy     IntAcc      ... 4.338
Radial Grid Type                 RadialGrid  ... OptM3 with GC (2021)
Angular Grid (max. ang.)         AngularGrid ... 3 (Lebedev-194)
Angular grid pruning method      GridPruning ... 4 (adaptive)
Weight generation scheme         WeightScheme... Becke
Basis function cutoff            BFCut       ... 1.0000e-11
Integration weight cutoff        WCut        ... 1.0000e-14
Angular grids for H and He will be reduced by one unit
Partially contracted basis set               ... on
Rotationally invariant grid construction     ... off

Total number of grid points                  ...    23294
Total number of batches                      ...      368
Average number of points per batch           ...       63
Average number of grid points per atom       ...     2912
UseSFitting                                  ... on

Time for X-Grid setup             =    0.609 sec

--------------
SCF ITERATIONS
--------------
ITER       Energy         Delta-E        Max-DP      RMS-DP      [F,P]     Damp
               ***  Starting incremental Fock matrix formation  ***
  0   -191.6003950906   0.000000000000 0.08404892  0.00651416  0.2373498 0.7000
  1   -191.6494311671  -0.049036076497 0.05341023  0.00436617  0.1054194 0.7000
                               ***Turning on DIIS***
  2   -191.6695789086  -0.020147741582 0.07442706  0.00678222  0.0398652 0.0000
  3   -191.7031979716  -0.033619062957 0.04714951  0.00325737  0.0616713 0.0000
  4   -191.7090702430  -0.005872271407 0.00704547  0.00080750  0.0111763 0.0000
  5   -191.7094629052  -0.000392662203 0.00523006  0.00037799  0.0035267 0.0000
                      *** Initiating the SOSCF procedure ***
                           *** Shutting down DIIS ***
                      *** Re-Reading the Fockian *** 
                      *** Removing any level shift *** 
ITER      Energy       Delta-E        Grad      Rot      Max-DP    RMS-DP
  6   -191.70949856  -0.0000356505  0.000639  0.000639  0.003700  0.000270
               *** Restarting incremental Fock matrix formation ***
  7   -191.70952223  -0.0000236697  0.000368  0.001145  0.001081  0.000085
  8   -191.70952304  -0.0000008115  0.000211  0.000325  0.000406  0.000047
  9   -191.70952386  -0.0000008259  0.000018  0.000052  0.000068  0.000006
 10   -191.70952387  -0.0000000042  0.000020  0.000024  0.000046  0.000004
 11   -191.70952387  -0.0000000072  0.000005  0.000017  0.000021  0.000002
 12   -191.70952387  -0.0000000004  0.000003  0.000008  0.000009  0.000001
                  ***Gradient check signals convergence***
              ***Rediagonalizing the Fockian in SOSCF/NRSCF***

               *****************************************************
               *                     SUCCESS                       *
               *           SCF CONVERGED AFTER  13 CYCLES          *
               *****************************************************

Old exchange energy                            =     -7.102587116 Eh
New exchange energy                            =     -7.102593040 Eh
Exchange energy change after final integration =     -0.000005924 Eh
Total energy after final integration           =   -191.709529799 Eh
Final COS-X integration done in                =     2.136 sec

----------------
TOTAL SCF ENERGY
----------------

Total Energy       :         -191.70952980 Eh           -5216.68152 eV

Components:
Nuclear Repulsion  :          106.53824930 Eh            2899.05315 eV
Electronic Energy  :         -298.24777910 Eh           -8115.73467 eV
One Electron Energy:         -470.10298244 Eh          -12792.15249 eV
Two Electron Energy:          171.85520334 Eh            4676.41783 eV
Max COSX asymmetry :            0.00000081 Eh               0.00002 eV

Virial components:
Potential Energy   :         -382.41848592 Eh          -10406.13604 eV
Kinetic Energy     :          190.70895612 Eh            5189.45452 eV
Virial Ratio       :            2.00524660


DFT components:
N(Alpha)           :       14.999993663334 electrons
N(Beta)            :       14.999993663334 electrons
N(Total)           :       29.999987326668 electrons
E(XC)              :      -19.043133314931 Eh       
DFET-embed. en.    :        0.000000000000 Eh       

---------------
SCF CONVERGENCE
---------------

  Last Energy change         ...   -4.8118e-11  Tolerance :   1.0000e-08
  Last MAX-Density change    ...    2.6645e-15  Tolerance :   1.0000e-07
  Last RMS-Density change    ...    1.0985e-16  Tolerance :   5.0000e-09
  Last Orbital Gradient      ...    1.1177e-06  Tolerance :   1.0000e-05
  Last Orbital Rotation      ...    6.0424e-06  Tolerance :   1.0000e-05

             **** THE GBW FILE WAS UPDATED (acrolien.634.gbw) ****
             **** DENSITY acrolien.634.scfp WAS UPDATED ****
             **** ENERGY FILE WAS UPDATED (acrolien.634.en.tmp) ****
             **** THE GBW FILE WAS UPDATED (acrolien.634.gbw) ****
             **** DENSITY acrolien.634.scfp WAS UPDATED ****
----------------
ORBITAL ENERGIES
----------------

  NO   OCC          E(Eh)            E(eV) 
   0   2.0000     -19.215564      -522.8821 
   1   2.0000     -10.344483      -281.4877 
   2   2.0000     -10.309893      -280.5465 
   3   2.0000     -10.274330      -279.5787 
   4   2.0000      -1.161542       -31.6072 
   5   2.0000      -0.886863       -24.1328 
   6   2.0000      -0.736145       -20.0315 
   7   2.0000      -0.603751       -16.4289 
   8   2.0000      -0.584665       -15.9095 
   9   2.0000      -0.511383       -13.9154 
  10   2.0000      -0.484569       -13.1858 
  11   2.0000      -0.479051       -13.0356 
  12   2.0000      -0.436643       -11.8817 
  13   2.0000      -0.342341        -9.3156 
  14   2.0000      -0.318557        -8.6684 
  15   0.0000      -0.020894        -0.5685 
  16   0.0000       0.116729         3.1764 
  17   0.0000       0.136264         3.7079 
  18   0.0000       0.139738         3.8025 
  19   0.0000       0.210201         5.7199 
  20   0.0000       0.231210         6.2915 
  21   0.0000       0.322195         8.7674 
  22   0.0000       0.366076         9.9614 
  23   0.0000       0.397341        10.8122 
  24   0.0000       0.569345        15.4927 
  25   0.0000       0.610934        16.6244 
  26   0.0000       0.641396        17.4533 
  27   0.0000       0.682904        18.5828 
  28   0.0000       0.696322        18.9479 
  29   0.0000       0.729005        19.8372 
  30   0.0000       0.778700        21.1895 
  31   0.0000       0.805139        21.9090 
  32   0.0000       0.840538        22.8722 
  33   0.0000       0.877330        23.8734 
  34   0.0000       0.902750        24.5651 
  35   0.0000       0.944590        25.7036 
  36   0.0000       1.011504        27.5244 
  37   0.0000       1.056106        28.7381 
  38   0.0000       1.070656        29.1340 
  39   0.0000       1.206569        32.8324 
  40   0.0000       1.215885        33.0859 
  41   0.0000       1.260402        34.2973 
  42   0.0000       1.339792        36.4576 
  43   0.0000       1.859230        50.5922 

                    ********************************
                    * MULLIKEN POPULATION ANALYSIS *
                    ********************************

-----------------------
MULLIKEN ATOMIC CHARGES
-----------------------
   0 C :    0.153404
   1 O :   -0.366112
   2 C :   -0.110885
   3 C :   -0.281913
   4 H :    0.110001
   5 H :    0.151233
   6 H :    0.197840
   7 H :    0.146433
Sum of atomic charges:   -0.0000000

--------------------------------
MULLIKEN REDUCED ORBITAL CHARGES
--------------------------------
  0 C s       :     3.157527  s :     3.157527
      pz      :     0.802690  p :     2.689069
      px      :     1.052989
      py      :     0.833391
  1 O s       :     3.912539  s :     3.912539
      pz      :     1.302587  p :     4.453573
      px      :     1.810013
      py      :     1.340973
  2 C s       :     3.171789  s :     3.171789
      pz      :     1.038855  p :     2.939095
      px      :     0.899517
      py      :     1.000724
  3 C s       :     3.366600  s :     3.366600
      pz      :     0.867933  p :     2.915313
      px      :     0.994004
      py      :     1.053376
  4 H s       :     0.889999  s :     0.889999
  5 H s       :     0.848767  s :     0.848767
  6 H s       :     0.802160  s :     0.802160
  7 H s       :     0.853567  s :     0.853567


                     *******************************
                     * LOEWDIN POPULATION ANALYSIS *
                     *******************************

----------------------
LOEWDIN ATOMIC CHARGES
----------------------
   0 C :    0.094151
   1 O :   -0.240051
   2 C :   -0.207959
   3 C :   -0.146836
   4 H :    0.076449
   5 H :    0.127616
   6 H :    0.165891
   7 H :    0.130739

-------------------------------
LOEWDIN REDUCED ORBITAL CHARGES
-------------------------------
  0 C s       :     2.956527  s :     2.956527
      pz      :     0.804898  p :     2.949322
      px      :     1.102894
      py      :     1.041530
  1 O s       :     3.608374  s :     3.608374
      pz      :     1.306461  p :     4.631677
      px      :     1.855532
      py      :     1.469685
  2 C s       :     2.966483  s :     2.966483
      pz      :     1.024684  p :     3.241476
      px      :     1.107672
      py      :     1.109121
  3 C s       :     3.056267  s :     3.056267
      pz      :     0.875932  p :     3.090570
      px      :     1.097748
      py      :     1.116889
  4 H s       :     0.923551  s :     0.923551
  5 H s       :     0.872384  s :     0.872384
  6 H s       :     0.834109  s :     0.834109
  7 H s       :     0.869261  s :     0.869261


                      *****************************
                      * MAYER POPULATION ANALYSIS *
                      *****************************

  NA   - Mulliken gross atomic population
  ZA   - Total nuclear charge
  QA   - Mulliken gross atomic charge
  VA   - Mayer's total valence
  BVA  - Mayer's bonded valence
  FA   - Mayer's free valence

  ATOM       NA         ZA         QA         VA         BVA        FA
  0 C      5.8466     6.0000     0.1534     3.8050     3.8050     0.0000
  1 O      8.3661     8.0000    -0.3661     2.0480     2.0480    -0.0000
  2 C      6.1109     6.0000    -0.1109     3.7005     3.7005    -0.0000
  3 C      6.2819     6.0000    -0.2819     3.8057     3.8057    -0.0000
  4 H      0.8900     1.0000     0.1100     0.9321     0.9321    -0.0000
  5 H      0.8488     1.0000     0.1512     0.9437     0.9437    -0.0000
  6 H      0.8022     1.0000     0.1978     0.9520     0.9520    -0.0000
  7 H      0.8536     1.0000     0.1464     0.9538     0.9538     0.0000

  Mayer bond orders larger than 0.100000
B(  0-C ,  1-O ) :   1.8921 B(  0-C ,  2-C ) :   0.9996 B(  0-C ,  4-H ) :   0.8949 
B(  1-O ,  3-C ) :   0.1042 B(  2-C ,  3-C ) :   1.8311 B(  2-C ,  5-H ) :   0.9319 
B(  3-C ,  6-H ) :   0.9131 B(  3-C ,  7-H ) :   0.9452 

-------
TIMINGS
-------

Total SCF time: 0 days 0 hours 0 min 31 sec 

Total time                  ....      31.905 sec
Sum of individual times     ....      29.162 sec  ( 91.4%)

Fock matrix formation       ....      26.985 sec  ( 84.6%)
  Split-RI-J                ....       0.616 sec  (  2.3% of F)
  Chain of spheres X        ....      11.871 sec  ( 44.0% of F)
  XC integration            ....       5.817 sec  ( 21.6% of F)
    Basis function eval.    ....       1.010 sec  ( 17.4% of XC)
    Density eval.           ....       0.352 sec  (  6.1% of XC)
    XC-Functional eval.     ....       1.456 sec  ( 25.0% of XC)
    XC-Potential eval.      ....       0.249 sec  (  4.3% of XC)
Diagonalization             ....       0.003 sec  (  0.0%)
Density matrix formation    ....       0.000 sec  (  0.0%)
Population analysis         ....       0.684 sec  (  2.1%)
Initial guess               ....       0.156 sec  (  0.5%)
Orbital Transformation      ....       0.000 sec  (  0.0%)
Orbital Orthonormalization  ....       0.000 sec  (  0.0%)
DIIS solution               ....       0.002 sec  (  0.0%)
SOSCF solution              ....       0.273 sec  (  0.9%)
Grid generation             ....       1.059 sec  (  3.3%)

Maximum memory used throughout the entire SCF-calculation: 46.8 MB
------------------------------------------------------------------------------
                        ORCA TD-DFT/TDA CALCULATION
------------------------------------------------------------------------------

Input orbitals are from        ... acrolien.634.gbw
CI-vector output               ... acrolien.634.cis
Tamm-Dancoff approximation     ... operative
CIS-Integral strategy          ... AO-integrals
Integral handling              ... AO integral Direct
Max. core memory used          ... 512 MB
Reference state                ... RHF
Generation of triplets         ... off
Follow IRoot                   ... off
Number of operators            ... 1
Orbital ranges used for CIS calculation:
 Operator 0:  Orbitals   4... 14  to  15... 43
XAS localization array:
 Operator 0:  Orbitals  -1... -1

-------------------
XC-INTEGRATION GRID
-------------------

General Integration Accuracy     IntAcc      ... 3.467
Radial Grid Type                 RadialGrid  ... OptM3 with GC (2021)
Angular Grid (max. ang.)         AngularGrid ... 1 (Lebedev-50)
Angular grid pruning method      GridPruning ... 4 (adaptive)
Weight generation scheme         WeightScheme... Becke
Basis function cutoff            BFCut       ... 1.0000e-11
Integration weight cutoff        WCut        ... 1.0000e-14
Angular grids for H and He will be reduced by one unit
Partially contracted basis set               ... off
Rotationally invariant grid construction     ... off

Total number of grid points                  ...     5492
Total number of batches                      ...       91
Average number of points per batch           ...       60
Average number of grid points per atom       ...      686

---------------------
COSX-INTEGRATION GRID
---------------------

General Integration Accuracy     IntAcc      ... 3.067
Radial Grid Type                 RadialGrid  ... OptM3 with GC (2021)
Angular Grid (max. ang.)         AngularGrid ... 1 (Lebedev-50)
Angular grid pruning method      GridPruning ... 4 (adaptive)
Weight generation scheme         WeightScheme... Becke
Basis function cutoff            BFCut       ... 1.0000e-11
Integration weight cutoff        WCut        ... 1.0000e-14
Angular grids for H and He will be reduced by one unit
Partially contracted basis set               ... on
Rotationally invariant grid construction     ... off

Total number of grid points                  ...     2504
Total number of batches                      ...       44
Average number of points per batch           ...       56
Average number of grid points per atom       ...      313

---------------
TD-DFT XC SETUP
---------------

DFT calculation                         ... on
Name of the grid file                   ... acrolien.634.grid_cis.tmp
Exchange functional (TD-DFT)            ... WB88
Correlation functional (TD-DFT)         ... LYP
 LDA part of GGA corr.  LDAOpt (TD-DFT) ... VWN-5
Hybrid DFT                              ... on
   Exchange mixing (TD-DFT)             ...  0.190
   GGA exch. scaling (TD-DFT)           ...  0.350
   GGA corr. scaling (TD-DFT)           ...  0.810
Range-Separated Exchange                ... on
   Range Range separation parameter mu  .... 0.330
   Max. amount of RS exchange (TD-DFT)  ...  0.460

Building densities             ... done
Calculating rho(r) on the grid ... done
Building xc-kernel on the grid ... done
                    *** TD-DFT CALCULATION INITIALIZED ***

------------------------
DAVIDSON-DIAGONALIZATION
------------------------

Dimension of the eigenvalue problem            ...    319
Number of roots to be determined               ...      1
Maximum size of the expansion space            ...     10
Maximum number of iterations                   ...    100
Convergence tolerance for the residual         ...    2.500e-07
Convergence tolerance for the energies         ...    2.500e-07
Orthogonality tolerance                        ...    1.000e-14
Level Shift                                    ...    0.000e+00
Constructing the preconditioner                ... o.k.
Building the initial guess                     ... o.k.
Number of trial vectors determined             ...     10


                       ****Iteration    0****

   Memory handling for direct AO based CIS:
   Memory per vector needed      ...     1 MB
   Memory needed                 ...     0 MB
   Memory available              ...   512 MB
   Number of vectors per batch   ...   512
   Number of batches             ...     1
   Time for densities:            0.000
   Time for RI-J (Direct):        0.043
   Time for K (COSX):             0.256
   Time for XC-Integration:       0.039
   Time for Sigma-Completion:     0.000
   Size of expansion space: 3
   Lowest Energy          :     0.138459813881
   Maximum Energy change  :     0.138459813881 (vector 0)
   Maximum residual norm  :     0.001798116658

                       ****Iteration    1****
   Time for densities:            0.000
   Time for RI-J (Direct):        0.034
   Time for K (COSX):             0.245
   Time for XC-Integration:       0.023
   Time for Sigma-Completion:     0.000
   Size of expansion space: 4
   Lowest Energy          :     0.130971643675
   Maximum Energy change  :     0.007488170206 (vector 0)
   Maximum residual norm  :     0.000255376909

                       ****Iteration    2****
   Time for densities:            0.000
   Time for RI-J (Direct):        0.034
   Time for K (COSX):             0.324
   Time for XC-Integration:       0.023
   Time for Sigma-Completion:     0.000
   Size of expansion space: 5
   Lowest Energy          :     0.130575985111
   Maximum Energy change  :     0.000395658564 (vector 0)
   Maximum residual norm  :     0.000036269453

                       ****Iteration    3****
   Time for densities:            0.000
   Time for RI-J (Direct):        0.034
   Time for K (COSX):             0.431
   Time for XC-Integration:       0.023
   Time for Sigma-Completion:     0.000
   Size of expansion space: 6
   Lowest Energy          :     0.130529652897
   Maximum Energy change  :     0.000046332214 (vector 0)
   Maximum residual norm  :     0.000002472673

                       ****Iteration    4****
   Time for densities:            0.000
   Time for RI-J (Direct):        0.035
   Time for K (COSX):             0.300
   Time for XC-Integration:       0.023
   Time for Sigma-Completion:     0.000
   Size of expansion space: 7
   Lowest Energy          :     0.130526896544
   Maximum Energy change  :     0.000002756353 (vector 0)
   Maximum residual norm  :     0.000000462484

                       ****Iteration    5****
   Time for densities:            0.000
   Time for RI-J (Direct):        0.035
   Time for K (COSX):             0.248
   Time for XC-Integration:       0.024
   Time for Sigma-Completion:     0.000
   Size of expansion space: 8
   Lowest Energy          :     0.130526312759
   Maximum Energy change  :     0.000000583785 (vector 0)
   Maximum residual norm  :     0.000000021238

      *** CONVERGENCE OF RESIDUAL NORM REACHED ***

Storing the converged CI vectors               ... acrolien.634.cis1

                 *** DAVIDSON DONE ***

Total time for solving the CIS problem:     2.313sec

------------------------------------
TD-DFT/TDA EXCITED STATES (SINGLETS)
------------------------------------

the weight of the individual excitations are printed if larger than 1.0e-02

STATE  1:  E=   0.130526 au      3.552 eV    28647.2 cm**-1 <S**2> =   0.000000
    14a ->  15a  :     0.953894 (c=  0.97667519)
    14a ->  16a  :     0.028641 (c=  0.16923701)


-----------------------------
TD-DFT/TDA-EXCITATION SPECTRA
-----------------------------

Center of mass = (  0.5757, -0.9083,  0.0003)
Calculating the Dipole integrals                  ... done
Transforming integrals                            ... done
Calculating the Linear Momentum integrals         ... done
Transforming integrals                            ... done
Calculating angular momentum integrals            ... done
Transforming integrals                            ... done

-----------------------------------------------------------------------------
         ABSORPTION SPECTRUM VIA TRANSITION ELECTRIC DIPOLE MOMENTS
-----------------------------------------------------------------------------
State   Energy    Wavelength  fosc         T2        TX        TY        TZ  
        (cm-1)      (nm)                 (au**2)    (au)      (au)      (au) 
-----------------------------------------------------------------------------
   1   28647.2    349.1   0.000601757   0.00692  -0.05765   0.00444  -0.05977

-----------------------------------------------------------------------------
         ABSORPTION SPECTRUM VIA TRANSITION VELOCITY DIPOLE MOMENTS
-----------------------------------------------------------------------------
State   Energy    Wavelength   fosc        P2         PX        PY        PZ  
        (cm-1)      (nm)                 (au**2)     (au)      (au)      (au) 
-----------------------------------------------------------------------------
   1   28647.2    349.1   0.000908700   0.00018  -0.00163   0.00274   0.01295

-------------------------------------------------------------------
                             CD SPECTRUM
-------------------------------------------------------------------
State  Energy     Wavelength     R         MX        MY        MZ   
       (cm-1)       (nm)     (1e40*cgs)   (au)      (au)      (au)  
-------------------------------------------------------------------
   1   28647.2    349.1     -1.37359   0.00122  -0.35250   0.02136

-------------------------------------------------------------------
         CD SPECTRUM VIA TRANSITION VELOCITY DIPOLE MOMENTS        
-------------------------------------------------------------------
State  Energy     Wavelength     R         MX        MY        MZ   
       (cm-1)       (nm)     (1e40*cgs)   (au)      (au)      (au)  
-------------------------------------------------------------------
   1   28647.2    349.1     -2.49116   0.00122  -0.35250   0.02136

Total run time:        3.410 sec

           *** ORCA-CIS/TD-DFT FINISHED WITHOUT ERROR ***

Maximum memory used throughout the entire CIS-calculation: 44.1 MB

-----------------------
CIS/TD-DFT TOTAL ENERGY
-----------------------

    E(SCF)  =   -191.709529799 Eh
    DE(CIS) =      0.130526313 Eh (Root  1)
    ----------------------------- ---------
    E(tot)  =   -191.579003486 Eh


-------------------------   --------------------
FINAL SINGLE POINT ENERGY      -191.579003486007
-------------------------   --------------------


                            ***************************************
                            *     ORCA property calculations      *
                            ***************************************

                                    ---------------------
                                    Active property flags
                                    ---------------------
   (+) Dipole Moment


------------------------------------------------------------------------------
                       ORCA ELECTRIC PROPERTIES CALCULATION
------------------------------------------------------------------------------

Dipole Moment Calculation                       ... on
Quadrupole Moment Calculation                   ... off
Polarizability Calculation                      ... off
GBWName                                         ... acrolien.634.gbw
Electron density                                ... acrolien.634.scfp
The origin for moment calculation is the CENTER OF MASS  = ( 0.575749, -0.908326  0.000258)

-------------
DIPOLE MOMENT
-------------
                                X             Y             Z
Electronic contribution:     -1.53263      -1.40004       0.01809
Nuclear contribution   :      1.90870       2.38701      -0.04232
                        -----------------------------------------
Total Dipole Moment    :      0.37607       0.98697      -0.02423
                        -----------------------------------------
Magnitude (a.u.)       :      1.05647
Magnitude (Debye)      :      2.68534



--------------------
Rotational spectrum 
--------------------
 
Rotational constants in cm-1:     0.717728     0.236032     0.178304 
Rotational constants in MHz : 21516.936802  7076.058927  5345.430168 

 Dipole components along the rotational axes: 
x,y,z [a.u.] :     0.833990    -0.648021    -0.025704 
x,y,z [Debye]:     2.119835    -1.647138    -0.065335 

 

Timings for individual modules:

Sum of individual times         ...       35.780 sec (=   0.596 min)
GTO integral calculation        ...        0.321 sec (=   0.005 min)   0.9 %
SCF iterations                  ...       31.914 sec (=   0.532 min)  89.2 %
CIS module                      ...        3.545 sec (=   0.059 min)   9.9 %
                             ****ORCA TERMINATED NORMALLY****
TOTAL RUN TIME: 0 days 0 hours 0 minutes 35 seconds 955 msec
