
                                 *****************
                                 * O   R   C   A *
                                 *****************

                                            #,                                       
                                            ###                                      
                                            ####                                     
                                            #####                                    
                                            ######                                   
                                           ########,                                 
                                     ,,################,,,,,                         
                               ,,#################################,,                 
                          ,,##########################################,,             
                       ,#########################################, ''#####,          
                    ,#############################################,,   '####,        
                  ,##################################################,,,,####,       
                ,###########''''           ''''###############################       
              ,#####''   ,,,,##########,,,,          '''####'''          '####       
            ,##' ,,,,###########################,,,                        '##       
           ' ,,###''''                  '''############,,,                           
         ,,##''                                '''############,,,,        ,,,,,,###''
      ,#''                                            '''#######################'''  
     '                                                          ''''####''''         
             ,#######,   #######,   ,#######,      ##                                
            ,#'     '#,  ##    ##  ,#'     '#,    #''#        ######   ,####,        
            ##       ##  ##   ,#'  ##            #'  '#       #        #'  '#        
            ##       ##  #######   ##           ,######,      #####,   #    #        
            '#,     ,#'  ##    ##  '#,     ,#' ,#      #,         ##   #,  ,#        
             '#######'   ##     ##  '#######'  #'      '#     #####' # '####'        



                  #######################################################
                  #                        -***-                        #
                  #          Department of theory and spectroscopy      #
                  #    Directorship and core code : Frank Neese         #
                  #        Max Planck Institute fuer Kohlenforschung    #
                  #                Kaiser Wilhelm Platz 1               #
                  #                 D-45470 Muelheim/Ruhr               #
                  #                      Germany                        #
                  #                                                     #
                  #                  All rights reserved                #
                  #                        -***-                        #
                  #######################################################


                         Program Version 5.0.3 -  RELEASE  -


 With contributions from (in alphabetic order):
   Daniel Aravena         : Magnetic Suceptibility
   Michael Atanasov       : Ab Initio Ligand Field Theory (pilot matlab implementation)
   Alexander A. Auer      : GIAO ZORA, VPT2 properties, NMR spectrum
   Ute Becker             : Parallelization
   Giovanni Bistoni       : ED, misc. LED, open-shell LED, HFLD
   Martin Brehm           : Molecular dynamics
   Dmytro Bykov           : SCF Hessian
   Vijay G. Chilkuri      : MRCI spin determinant printing, contributions to CSF-ICE
   Dipayan Datta          : RHF DLPNO-CCSD density
   Achintya Kumar Dutta   : EOM-CC, STEOM-CC
   Dmitry Ganyushin       : Spin-Orbit,Spin-Spin,Magnetic field MRCI
   Miquel Garcia          : C-PCM and meta-GGA Hessian, CC/C-PCM, Gaussian charge scheme
   Yang Guo               : DLPNO-NEVPT2, F12-NEVPT2, CIM, IAO-localization
   Andreas Hansen         : Spin unrestricted coupled pair/coupled cluster methods
   Benjamin Helmich-Paris : MC-RPA, TRAH-SCF, COSX integrals
   Lee Huntington         : MR-EOM, pCC
   Robert Izsak           : Overlap fitted RIJCOSX, COSX-SCS-MP3, EOM
   Marcus Kettner         : VPT2
   Christian Kollmar      : KDIIS, OOCD, Brueckner-CCSD(T), CCSD density, CASPT2, CASPT2-K
   Simone Kossmann        : Meta GGA functionals, TD-DFT gradient, OOMP2, MP2 Hessian
   Martin Krupicka        : Initial AUTO-CI
   Lucas Lang             : DCDCAS
   Marvin Lechner         : AUTO-CI (C++ implementation), FIC-MRCC
   Dagmar Lenk            : GEPOL surface, SMD
   Dimitrios Liakos       : Extrapolation schemes; Compound Job, initial MDCI parallelization
   Dimitrios Manganas     : Further ROCIS development; embedding schemes
   Dimitrios Pantazis     : SARC Basis sets
   Anastasios Papadopoulos: AUTO-CI, single reference methods and gradients
   Taras Petrenko         : DFT Hessian,TD-DFT gradient, ASA, ECA, R-Raman, ABS, FL, XAS/XES, NRVS
   Peter Pinski           : DLPNO-MP2, DLPNO-MP2 Gradient
   Christoph Reimann      : Effective Core Potentials
   Marius Retegan         : Local ZFS, SOC
   Christoph Riplinger    : Optimizer, TS searches, QM/MM, DLPNO-CCSD(T), (RO)-DLPNO pert. Triples
   Tobias Risthaus        : Range-separated hybrids, TD-DFT gradient, RPA, STAB
   Michael Roemelt        : Original ROCIS implementation
   Masaaki Saitow         : Open-shell DLPNO-CCSD energy and density
   Barbara Sandhoefer     : DKH picture change effects
   Avijit Sen             : IP-ROCIS
   Kantharuban Sivalingam : CASSCF convergence, NEVPT2, FIC-MRCI
   Bernardo de Souza      : ESD, SOC TD-DFT
   Georgi Stoychev        : AutoAux, RI-MP2 NMR, DLPNO-MP2 response
   Willem Van den Heuvel  : Paramagnetic NMR
   Boris Wezisla          : Elementary symmetry handling
   Frank Wennmohs         : Technical directorship


 We gratefully acknowledge several colleagues who have allowed us to
 interface, adapt or use parts of their codes:
   Stefan Grimme, W. Hujo, H. Kruse, P. Pracht,  : VdW corrections, initial TS optimization,
                  C. Bannwarth, S. Ehlert          DFT functionals, gCP, sTDA/sTD-DF
   Ed Valeev, F. Pavosevic, A. Kumar             : LibInt (2-el integral package), F12 methods
   Garnet Chan, S. Sharma, J. Yang, R. Olivares  : DMRG
   Ulf Ekstrom                                   : XCFun DFT Library
   Mihaly Kallay                                 : mrcc  (arbitrary order and MRCC methods)
   Jiri Pittner, Ondrej Demel                    : Mk-CCSD
   Frank Weinhold                                : gennbo (NPA and NBO analysis)
   Christopher J. Cramer and Donald G. Truhlar   : smd solvation model
   Lars Goerigk                                  : TD-DFT with DH, B97 family of functionals
   V. Asgeirsson, H. Jonsson                     : NEB implementation
   FAccTs GmbH                                   : IRC, NEB, NEB-TS, DLPNO-Multilevel, CI-OPT
                                                   MM, QMMM, 2- and 3-layer-ONIOM, Crystal-QMMM,
                                                   LR-CPCM, SF, NACMEs, symmetry and pop. for TD-DFT,
                                                   nearIR, NL-DFT gradient (VV10), updates on ESD,
                                                   ML-optimized integration grids
   S Lehtola, MJT Oliveira, MAL Marques          : LibXC Library
   Liviu Ungur et al                             : ANISO software


 Your calculation uses the libint2 library for the computation of 2-el integrals
 For citations please refer to: http://libint.valeyev.net

 Your ORCA version has been built with support for libXC version: 5.1.0
 For citations please refer to: https://tddft.org/programs/libxc/

 This ORCA versions uses:
   CBLAS   interface :  Fast vector & matrix operations
   LAPACKE interface :  Fast linear algebra routines
   SCALAPACK package :  Parallel linear algebra routines
   Shared memory     :  Shared parallel matrices
   BLAS/LAPACK       :  OpenBLAS 0.3.15  USE64BITINT DYNAMIC_ARCH NO_AFFINITY Haswell SINGLE_THREADED
        Core in use  :  Haswell
   Copyright (c) 2011-2014, The OpenBLAS Project


XCFun DFT library Copyright 2009-2010 Ulf Ekstrom and contributors.
See http://admol.org/xcfun for more information.
This is free software; see the source code for copying conditions.
There is ABSOLUTELY NO WARRANTY; not even for MERCHANTABILITY or FITNESS FOR A PARTICULAR PURPOSE.
For details see the documentation.
Scientific users of this library should cite U. Ekstrom, L. Visscher, R. Bast, A. J. Thorvaldsen and K. Ruud;
J.Chem.Theor.Comp. 2010, DOI: 10.1021/ct100117s
XCFun Version 0.99 

================================================================================

----- Orbital basis set information -----
Your calculation utilizes the basis: 6-31G
   H-He, Li-Ne : W. J. Hehre, R. Ditchfield and J.A. Pople, J. Chem. Phys. 56, 2257 (1972).
                 Note: He and Ne are unpublished basis sets taken from the Gaussian program.
                 Note: Li and B from J. D. Dill and J. A. Pople, J. Chem. Phys. 62, 2921 (1975).
   Na - Ar     : M. M. Francl, W. J. Pietro, W. J. Hehre, J. S. Binkley, M. S. Gordon, 
                 D. J. DeFrees and J. A. Pople, J. Chem. Phys. 77, 3654 (1982).
   K - Zn      : V. A. Rassolov, J. A. Pople, M. A. Ratner, and T. L. Windus, J. Chem. Phys. 109, 1223 (1998).

----- AuxJ basis set information -----
Your calculation utilizes the auxiliary basis: def2/J
   F. Weigend, Phys. Chem. Chem. Phys. 8, 1057 (2006).

================================================================================
                                        WARNINGS
                       Please study these warnings very carefully!
================================================================================

INFO   : Checking CIS options ...

INFO   : the flag for use of the SHARK integral package has been found!

================================================================================
                                       INPUT FILE
================================================================================
NAME = acrolien.636.com
|  1> ! RKS CAM-B3LYP 6-31G
|  2> !TightSCF
|  3> %scf
|  4>  ConvForced true
|  5>  convergence tight
|  6>  MaxIter 500
|  7> end
|  8>  
|  9> %tddft 
| 10>  nroots 1
| 11> end
| 12> 
| 13> # 	2940
| 14> * xyz 0 1
| 15> 		C   -1.160436  -0.345449   0.041497
| 16> 		O   -1.180328  -1.494230   0.027847
| 17> 		C    0.000784   0.561348   0.041420
| 18> 		C    1.196752  -0.053481  -0.008141
| 19> 		H   -2.058180   0.321213  -0.057684
| 20> 		H   -0.130668   1.788701  -0.007047
| 21> 		H    1.247558  -1.241521   0.052463
| 22> 		H    2.120136   0.430622  -0.005794
| 23> *
| 24> 
| 25>                          ****END OF INPUT****
================================================================================

                       ****************************
                       * Single Point Calculation *
                       ****************************

---------------------------------
CARTESIAN COORDINATES (ANGSTROEM)
---------------------------------
  C     -1.160436   -0.345449    0.041497
  O     -1.180328   -1.494230    0.027847
  C      0.000784    0.561348    0.041420
  C      1.196752   -0.053481   -0.008141
  H     -2.058180    0.321213   -0.057684
  H     -0.130668    1.788701   -0.007047
  H      1.247558   -1.241521    0.052463
  H      2.120136    0.430622   -0.005794

----------------------------
CARTESIAN COORDINATES (A.U.)
----------------------------
  NO LB      ZA    FRAG     MASS         X           Y           Z
   0 C     6.0000    0    12.011   -2.192906   -0.652804    0.078418
   1 O     8.0000    0    15.999   -2.230497   -2.823685    0.052623
   2 C     6.0000    0    12.011    0.001482    1.060794    0.078272
   3 C     6.0000    0    12.011    2.261534   -0.101064   -0.015384
   4 H     1.0000    0     1.008   -3.889397    0.607005   -0.109007
   5 H     1.0000    0     1.008   -0.246927    3.380155   -0.013317
   6 H     1.0000    0     1.008    2.357543   -2.346135    0.099141
   7 H     1.0000    0     1.008    4.006476    0.813758   -0.010949

--------------------------------
INTERNAL COORDINATES (ANGSTROEM)
--------------------------------
 C      0   0   0     0.000000000000     0.00000000     0.00000000
 O      1   0   0     1.149034290230     0.00000000     0.00000000
 C      1   2   0     1.473333870356   128.97498953     0.00000000
 C      3   1   2     1.345663571992   114.78886047     1.44566013
 H      1   2   3     1.122594932530   125.36851295   172.73875955
 H      3   1   2     1.235323465738   121.84580733   176.47664044
 H      4   3   1     1.190669196734   119.46793280   354.47818528
 H      4   3   1     1.042592554392   125.09304413   180.66970733

---------------------------
INTERNAL COORDINATES (A.U.)
---------------------------
 C      0   0   0     0.000000000000     0.00000000     0.00000000
 O      1   0   0     2.171360127020     0.00000000     0.00000000
 C      1   2   0     2.784197518803   128.97498953     0.00000000
 C      3   1   2     2.542935619459   114.78886047     1.44566013
 H      1   2   3     2.121396981809   125.36851295   172.73875955
 H      3   1   2     2.334423037051   121.84580733   176.47664044
 H      4   3   1     2.250038697924   119.46793280   354.47818528
 H      4   3   1     1.970214397067   125.09304413   180.66970733

---------------------
BASIS SET INFORMATION
---------------------
There are 3 groups of distinct atoms

 Group   1 Type C   : 10s4p contracted to 3s2p pattern {631/31}
 Group   2 Type O   : 10s4p contracted to 3s2p pattern {631/31}
 Group   3 Type H   : 4s contracted to 2s pattern {31}

Atom   0C    basis set group =>   1
Atom   1O    basis set group =>   2
Atom   2C    basis set group =>   1
Atom   3C    basis set group =>   1
Atom   4H    basis set group =>   3
Atom   5H    basis set group =>   3
Atom   6H    basis set group =>   3
Atom   7H    basis set group =>   3
---------------------------------
AUXILIARY/J BASIS SET INFORMATION
---------------------------------
There are 3 groups of distinct atoms

 Group   1 Type C   : 12s5p4d2f1g contracted to 6s4p3d1f1g pattern {711111/2111/211/2/1}
 Group   2 Type O   : 12s5p4d2f1g contracted to 6s4p3d1f1g pattern {711111/2111/211/2/1}
 Group   3 Type H   : 5s2p1d contracted to 3s1p1d pattern {311/2/1}

Atom   0C    basis set group =>   1
Atom   1O    basis set group =>   2
Atom   2C    basis set group =>   1
Atom   3C    basis set group =>   1
Atom   4H    basis set group =>   3
Atom   5H    basis set group =>   3
Atom   6H    basis set group =>   3
Atom   7H    basis set group =>   3
------------------------------------------------------------------------------
                           ORCA GTO INTEGRAL CALCULATION
                           -- RI-GTO INTEGRALS CHOSEN --
------------------------------------------------------------------------------
------------------------------------------------------------------------------
                   ___                                                        
                  /   \      - P O W E R E D   B Y -                         
                 /     \                                                     
                 |  |  |   _    _      __       _____    __    __             
                 |  |  |  | |  | |    /  \     |  _  \  |  |  /  |          
                  \  \/   | |  | |   /    \    | | | |  |  | /  /          
                 / \  \   | |__| |  /  /\  \   | |_| |  |  |/  /          
                |  |  |   |  __  | /  /__\  \  |    /   |      \           
                |  |  |   | |  | | |   __   |  |    \   |  |\   \          
                \     /   | |  | | |  |  |  |  | |\  \  |  | \   \       
                 \___/    |_|  |_| |__|  |__|  |_| \__\ |__|  \__/        
                                                                              
                      - O R C A' S   B I G   F R I E N D -                    
                                      &                                       
                       - I N T E G R A L  F E E D E R -                       
                                                                              
 v1 FN, 2020, v2 2021                                                         
------------------------------------------------------------------------------


Reading SHARK input file acrolien.636.SHARKINP.tmp ... ok
----------------------
SHARK INTEGRAL PACKAGE
----------------------

Number of atoms                             ...      8
Number of basis functions                   ...     44
Number of shells                            ...     28
Maximum angular momentum                    ...      1
Integral batch strategy                     ... SHARK/LIBINT Hybrid
RI-J (if used) integral strategy            ... SPLIT-RIJ (Revised 2003 algorithm where possible)
Printlevel                                  ...      1
Contraction scheme used                     ... SEGMENTED contraction
Coulomb Range Separation                    ... NOT USED
Exchange Range Separation                   ... Long Range
   Mu parameter                             ...  0.330000
   Scaling (regular/separated)              ...  0.190000  0.460000
Finite Nucleus Model                        ... NOT USED
Auxiliary Coulomb fitting basis             ... AVAILABLE
   # of basis functions in Aux-J            ...    240
   # of shells in Aux-J                     ...     80
   Maximum angular momentum in Aux-J        ...      4
Auxiliary J/K fitting basis                 ... NOT available
Auxiliary Correlation fitting basis         ... NOT available
Auxiliary 'external' fitting basis          ... NOT available
Integral threshold                          ...     2.500000e-11
Primitive cut-off                           ...     2.500000e-12
Primitive pair pre-selection threshold      ...     2.500000e-12

Calculating pre-screening integrals         ... done (  0.0 sec) Dimension = 28
Organizing shell pair data                  ... done (  0.0 sec)
Shell pair information
Total number of shell pairs                 ...       406
Shell pairs after pre-screening             ...       402
Total number of primitive shell pairs       ...      2724
Primitive shell pairs kept                  ...      2020
          la=0 lb=0:    206 shell pairs
          la=1 lb=0:    160 shell pairs
          la=1 lb=1:     36 shell pairs

Calculating one electron integrals          ... done (  0.0 sec)
Calculating RI/J V-Matrix + Cholesky decomp.... done (  0.0 sec)
Calculating Nuclear repulsion               ... done (  0.0 sec) ENN=    105.829481645889 Eh

SHARK setup successfully completed in   0.3 seconds

Maximum memory used throughout the entire GTOINT-calculation: 8.3 MB
-------------------------------------------------------------------------------
                                 ORCA SCF
-------------------------------------------------------------------------------

------------
SCF SETTINGS
------------
Hamiltonian:
 Density Functional     Method          .... DFT(GTOs)
 Exchange Functional    Exchange        .... WB88
 Correlation Functional Correlation     .... LYP
 LDA part of GGA corr.  LDAOpt          .... VWN-5
 Gradients option       PostSCFGGA      .... off
 Hybrid DFT is turned on
   Fraction HF Exchange ScalHFX         ....  0.190000
   Scaling of DF-GGA-X  ScalDFX         ....  0.350000
   Scaling of DF-GGA-C  ScalDFC         ....  0.810000
   Scaling of DF-LDA-C  ScalLDAC        ....  1.000000
   Perturbative correction              ....  0.000000
   Density functional embedding theory  .... OFF
 Long-range corrected/Screened/Range-Separated Hybrid DFT is turned on
   Amount of maximum screened exact exchange              ....  0.460000
   Range separation parameter mu (erf(mu*r12)/r12)        ....  0.330000
 RI-approximation to the Coulomb term is turned on
   Number of AuxJ basis functions       .... 240
   RIJ-COSX (HFX calculated with COS-X)).... on


General Settings:
 Integral files         IntName         .... acrolien.636
 Hartree-Fock type      HFTyp           .... RHF
 Total Charge           Charge          ....    0
 Multiplicity           Mult            ....    1
 Number of Electrons    NEL             ....   30
 Basis Dimension        Dim             ....   44
 Nuclear Repulsion      ENuc            ....    105.8294816459 Eh

Convergence Acceleration:
 DIIS                   CNVDIIS         .... on
   Start iteration      DIISMaxIt       ....    12
   Startup error        DIISStart       ....  0.200000
   # of expansion vecs  DIISMaxEq       ....     5
   Bias factor          DIISBfac        ....   1.050
   Max. coefficient     DIISMaxC        ....  10.000
 Trust-Rad. Augm. Hess. CNVTRAH         .... auto
   Auto Start mean grad. ratio tolernc. ....  1.125000
   Auto Start start iteration           ....    20
   Auto Start num. interpolation iter.  ....    10
   Max. Number of Micro iterations      ....    16
   Max. Number of Macro iterations      .... Maxiter - #DIIS iter
   Number of Davidson start vectors     ....     2
   Converg. threshold I  (grad. norm)   ....   1.000e-05
   Converg. threshold II (energy diff.) ....   1.000e-08
   Grad. Scal. Fac. for Micro threshold ....   0.100
   Minimum threshold for Micro iter.    ....   0.010
   NR start threshold (gradient norm)   ....   0.001
   Initial trust radius                 ....   0.400
   Minimum AH scaling param. (alpha)    ....   1.000
   Maximum AH scaling param. (alpha)    .... 1000.000
   Orbital update algorithm             .... Taylor
   White noise on init. David. guess    .... on
   Maximum white noise                  ....   0.010
   Quad. conv. algorithm                .... NR
 SOSCF                  CNVSOSCF        .... on
   Start iteration      SOSCFMaxIt      ....   150
   Startup grad/error   SOSCFStart      ....  0.003300
 Level Shifting         CNVShift        .... on
   Level shift para.    LevelShift      ....    0.2500
   Turn off err/grad.   ShiftErr        ....    0.0010
 Zerner damping         CNVZerner       .... off
 Static damping         CNVDamp         .... on
   Fraction old density DampFac         ....    0.7000
   Max. Damping (<1)    DampMax         ....    0.9800
   Min. Damping (>=0)   DampMin         ....    0.0000
   Turn off err/grad.   DampErr         ....    0.1000
 Fernandez-Rico         CNVRico         .... off

SCF Procedure:
 Maximum # iterations   MaxIter         ....   500
 SCF integral mode      SCFMode         .... Direct
   Integral package                     .... SHARK and LIBINT hybrid scheme
 Reset frequency        DirectResetFreq ....    20
 Integral Threshold     Thresh          ....  2.500e-11 Eh
 Primitive CutOff       TCut            ....  2.500e-12 Eh

Convergence Tolerance:
 Convergence Check Mode ConvCheckMode   .... Total+1el-Energy
 Convergence forced     ConvForced      .... 1
 Energy Change          TolE            ....  1.000e-08 Eh
 1-El. energy change                    ....  1.000e-05 Eh
 Orbital Gradient       TolG            ....  1.000e-05
 Orbital Rotation angle TolX            ....  1.000e-05
 DIIS Error             TolErr          ....  5.000e-07


Diagonalization of the overlap matrix:
Smallest eigenvalue                        ... 5.229e-03
Time for diagonalization                   ...    0.001 sec
Threshold for overlap eigenvalues          ... 1.000e-08
Number of eigenvalues below threshold      ... 0
Time for construction of square roots      ...    0.062 sec
Total time needed                          ...    0.063 sec

Time for model grid setup =    0.052 sec

------------------------------
INITIAL GUESS: MODEL POTENTIAL
------------------------------
Loading Hartree-Fock densities                     ... done
Calculating cut-offs                               ... done
Initializing the effective Hamiltonian             ... done
Setting up the integral package (SHARK)            ... done
Starting the Coulomb interaction                   ... done (   0.0 sec)
Reading the grid                                   ... done
Mapping shells                                     ... done
Starting the XC term evaluation                    ... done (   0.0 sec)
  promolecular density results
     # of electrons  =     29.998991566
     EX              =    -24.604393427
     EC              =     -0.966494869
     EX+EC           =    -25.570888296
Transforming the Hamiltonian                       ... done (   0.0 sec)
Diagonalizing the Hamiltonian                      ... done (   0.0 sec)
Back transforming the eigenvectors                 ... done (   0.0 sec)
Now organizing SCF variables                       ... done
                      ------------------
                      INITIAL GUESS DONE (   0.2 sec)
                      ------------------
-------------------
DFT GRID GENERATION
-------------------

General Integration Accuracy     IntAcc      ... 4.388
Radial Grid Type                 RadialGrid  ... OptM3 with GC (2021)
Angular Grid (max. ang.)         AngularGrid ... 4 (Lebedev-302)
Angular grid pruning method      GridPruning ... 4 (adaptive)
Weight generation scheme         WeightScheme... Becke
Basis function cutoff            BFCut       ... 1.0000e-11
Integration weight cutoff        WCut        ... 1.0000e-14
Angular grids for H and He will be reduced by one unit
Partially contracted basis set               ... off
Rotationally invariant grid construction     ... off

Total number of grid points                  ...    37373
Total number of batches                      ...      588
Average number of points per batch           ...       63
Average number of grid points per atom       ...     4672
Time for grid setup =    0.402 sec

--------------------
COSX GRID GENERATION
--------------------

GRIDX 1
-------
General Integration Accuracy     IntAcc      ... 3.816
Radial Grid Type                 RadialGrid  ... OptM3 with GC (2021)
Angular Grid (max. ang.)         AngularGrid ... 1 (Lebedev-50)
Angular grid pruning method      GridPruning ... 4 (adaptive)
Weight generation scheme         WeightScheme... Becke
Basis function cutoff            BFCut       ... 1.0000e-11
Integration weight cutoff        WCut        ... 1.0000e-14
Angular grids for H and He will be reduced by one unit
Partially contracted basis set               ... on
Rotationally invariant grid construction     ... off

Total number of grid points                  ...     4791
Total number of batches                      ...       78
Average number of points per batch           ...       61
Average number of grid points per atom       ...      599
UseSFitting                                  ... on

GRIDX 2
-------
General Integration Accuracy     IntAcc      ... 4.020
Radial Grid Type                 RadialGrid  ... OptM3 with GC (2021)
Angular Grid (max. ang.)         AngularGrid ... 2 (Lebedev-110)
Angular grid pruning method      GridPruning ... 4 (adaptive)
Weight generation scheme         WeightScheme... Becke
Basis function cutoff            BFCut       ... 1.0000e-11
Integration weight cutoff        WCut        ... 1.0000e-14
Angular grids for H and He will be reduced by one unit
Partially contracted basis set               ... on
Rotationally invariant grid construction     ... off

Total number of grid points                  ...    10534
Total number of batches                      ...      169
Average number of points per batch           ...       62
Average number of grid points per atom       ...     1317
UseSFitting                                  ... on

GRIDX 3
-------
General Integration Accuracy     IntAcc      ... 4.338
Radial Grid Type                 RadialGrid  ... OptM3 with GC (2021)
Angular Grid (max. ang.)         AngularGrid ... 3 (Lebedev-194)
Angular grid pruning method      GridPruning ... 4 (adaptive)
Weight generation scheme         WeightScheme... Becke
Basis function cutoff            BFCut       ... 1.0000e-11
Integration weight cutoff        WCut        ... 1.0000e-14
Angular grids for H and He will be reduced by one unit
Partially contracted basis set               ... on
Rotationally invariant grid construction     ... off

Total number of grid points                  ...    23273
Total number of batches                      ...      367
Average number of points per batch           ...       63
Average number of grid points per atom       ...     2909
UseSFitting                                  ... on

Time for X-Grid setup             =    0.683 sec

--------------
SCF ITERATIONS
--------------
ITER       Energy         Delta-E        Max-DP      RMS-DP      [F,P]     Damp
               ***  Starting incremental Fock matrix formation  ***
  0   -191.6133535399   0.000000000000 0.07724497  0.00576590  0.2259914 0.7000
  1   -191.6588006705  -0.045447130614 0.04813807  0.00389089  0.1024319 0.7000
                               ***Turning on DIIS***
  2   -191.6777551974  -0.018954526844 0.07173175  0.00630305  0.0383776 0.0000
  3   -191.7093381048  -0.031582907469 0.03742511  0.00275529  0.0548002 0.0000
  4   -191.7145853020  -0.005247197176 0.00642522  0.00068217  0.0105347 0.0000
                      *** Initiating the SOSCF procedure ***
                           *** Shutting down DIIS ***
                      *** Re-Reading the Fockian *** 
                      *** Removing any level shift *** 
ITER      Energy       Delta-E        Grad      Rot      Max-DP    RMS-DP
  5   -191.71492930  -0.0003439965  0.000807  0.000807  0.004001  0.000248
               *** Restarting incremental Fock matrix formation ***
  6   -191.71494950  -0.0000201982  0.000505  0.001332  0.002521  0.000154
  7   -191.71495421  -0.0000047107  0.000165  0.000647  0.001744  0.000101
  8   -191.71495472  -0.0000005146  0.000093  0.000176  0.000229  0.000020
  9   -191.71495490  -0.0000001787  0.000042  0.000063  0.000281  0.000016
 10   -191.71495491  -0.0000000057  0.000039  0.000034  0.000148  0.000008
 11   -191.71495492  -0.0000000182  0.000006  0.000017  0.000017  0.000001
 12   -191.71495492   0.0000000001  0.000006  0.000008  0.000007  0.000001
                  ***Gradient check signals convergence***
              ***Rediagonalizing the Fockian in SOSCF/NRSCF***

               *****************************************************
               *                     SUCCESS                       *
               *           SCF CONVERGED AFTER  13 CYCLES          *
               *****************************************************

Old exchange energy                            =     -7.110076719 Eh
New exchange energy                            =     -7.110066833 Eh
Exchange energy change after final integration =      0.000009886 Eh
Total energy after final integration           =   -191.714945039 Eh
Final COS-X integration done in                =     2.063 sec

----------------
TOTAL SCF ENERGY
----------------

Total Energy       :         -191.71494504 Eh           -5216.82887 eV

Components:
Nuclear Repulsion  :          105.82948165 Eh            2879.76660 eV
Electronic Energy  :         -297.54442668 Eh           -8096.59547 eV
One Electron Energy:         -468.49858024 Eh          -12748.49449 eV
Two Electron Energy:          170.95415355 Eh            4651.89902 eV
Max COSX asymmetry :            0.00000093 Eh               0.00003 eV

Virial components:
Potential Energy   :         -382.53287755 Eh          -10409.24879 eV
Kinetic Energy     :          190.81793251 Eh            5192.41992 eV
Virial Ratio       :            2.00470088


DFT components:
N(Alpha)           :       15.000007059540 electrons
N(Beta)            :       15.000007059540 electrons
N(Total)           :       30.000014119079 electrons
E(XC)              :      -19.063104929741 Eh       
DFET-embed. en.    :        0.000000000000 Eh       

---------------
SCF CONVERGENCE
---------------

  Last Energy change         ...   -1.0056e-10  Tolerance :   1.0000e-08
  Last MAX-Density change    ...    1.7764e-15  Tolerance :   1.0000e-07
  Last RMS-Density change    ...    1.0197e-16  Tolerance :   5.0000e-09
  Last Orbital Gradient      ...    2.9268e-07  Tolerance :   1.0000e-05
  Last Orbital Rotation      ...    8.8346e-07  Tolerance :   1.0000e-05

             **** THE GBW FILE WAS UPDATED (acrolien.636.gbw) ****
             **** DENSITY acrolien.636.scfp WAS UPDATED ****
             **** ENERGY FILE WAS UPDATED (acrolien.636.en.tmp) ****
             **** THE GBW FILE WAS UPDATED (acrolien.636.gbw) ****
             **** DENSITY acrolien.636.scfp WAS UPDATED ****
----------------
ORBITAL ENERGIES
----------------

  NO   OCC          E(Eh)            E(eV) 
   0   2.0000     -19.230424      -523.2865 
   1   2.0000     -10.354800      -281.7684 
   2   2.0000     -10.288282      -279.9584 
   3   2.0000     -10.286963      -279.9225 
   4   2.0000      -1.195679       -32.5361 
   5   2.0000      -0.879285       -23.9266 
   6   2.0000      -0.734706       -19.9924 
   7   2.0000      -0.612840       -16.6762 
   8   2.0000      -0.577272       -15.7084 
   9   2.0000      -0.523231       -14.2378 
  10   2.0000      -0.499728       -13.5983 
  11   2.0000      -0.493436       -13.4271 
  12   2.0000      -0.437288       -11.8992 
  13   2.0000      -0.348309        -9.4780 
  14   2.0000      -0.319686        -8.6991 
  15   0.0000      -0.010741        -0.2923 
  16   0.0000       0.124290         3.3821 
  17   0.0000       0.128939         3.5086 
  18   0.0000       0.168277         4.5790 
  19   0.0000       0.202913         5.5215 
  20   0.0000       0.234951         6.3933 
  21   0.0000       0.321441         8.7469 
  22   0.0000       0.372260        10.1297 
  23   0.0000       0.391346        10.6491 
  24   0.0000       0.566285        15.4094 
  25   0.0000       0.599527        16.3140 
  26   0.0000       0.638891        17.3851 
  27   0.0000       0.675182        18.3726 
  28   0.0000       0.695385        18.9224 
  29   0.0000       0.706887        19.2354 
  30   0.0000       0.769663        20.9436 
  31   0.0000       0.832006        22.6400 
  32   0.0000       0.856182        23.2979 
  33   0.0000       0.887267        24.1438 
  34   0.0000       0.909875        24.7590 
  35   0.0000       0.995302        27.0835 
  36   0.0000       1.017066        27.6758 
  37   0.0000       1.049838        28.5676 
  38   0.0000       1.060134        28.8477 
  39   0.0000       1.172204        31.8973 
  40   0.0000       1.218531        33.1579 
  41   0.0000       1.257558        34.2199 
  42   0.0000       1.333696        36.2917 
  43   0.0000       1.917254        52.1711 

                    ********************************
                    * MULLIKEN POPULATION ANALYSIS *
                    ********************************

-----------------------
MULLIKEN ATOMIC CHARGES
-----------------------
   0 C :    0.160865
   1 O :   -0.320413
   2 C :   -0.131891
   3 C :   -0.271663
   4 H :    0.085905
   5 H :    0.153878
   6 H :    0.178021
   7 H :    0.145298
Sum of atomic charges:   -0.0000000

--------------------------------
MULLIKEN REDUCED ORBITAL CHARGES
--------------------------------
  0 C s       :     3.156948  s :     3.156948
      pz      :     0.788287  p :     2.682187
      px      :     1.056674
      py      :     0.837226
  1 O s       :     3.894142  s :     3.894142
      pz      :     1.299634  p :     4.426271
      px      :     1.783109
      py      :     1.343528
  2 C s       :     3.213285  s :     3.213285
      pz      :     1.023515  p :     2.918607
      px      :     0.907439
      py      :     0.987653
  3 C s       :     3.295829  s :     3.295829
      pz      :     0.891826  p :     2.975834
      px      :     1.020612
      py      :     1.063396
  4 H s       :     0.914095  s :     0.914095
  5 H s       :     0.846122  s :     0.846122
  6 H s       :     0.821979  s :     0.821979
  7 H s       :     0.854702  s :     0.854702


                     *******************************
                     * LOEWDIN POPULATION ANALYSIS *
                     *******************************

----------------------
LOEWDIN ATOMIC CHARGES
----------------------
   0 C :    0.102602
   1 O :   -0.189037
   2 C :   -0.194442
   3 C :   -0.166051
   4 H :    0.055761
   5 H :    0.129353
   6 H :    0.140900
   7 H :    0.120914

-------------------------------
LOEWDIN REDUCED ORBITAL CHARGES
-------------------------------
  0 C s       :     2.949017  s :     2.949017
      pz      :     0.791218  p :     2.948381
      px      :     1.096136
      py      :     1.061027
  1 O s       :     3.578993  s :     3.578993
      pz      :     1.299699  p :     4.610043
      px      :     1.827083
      py      :     1.483261
  2 C s       :     2.999142  s :     2.999142
      pz      :     1.015964  p :     3.195300
      px      :     1.095386
      py      :     1.083950
  3 C s       :     3.016088  s :     3.016088
      pz      :     0.896295  p :     3.149963
      px      :     1.121349
      py      :     1.132320
  4 H s       :     0.944239  s :     0.944239
  5 H s       :     0.870647  s :     0.870647
  6 H s       :     0.859100  s :     0.859100
  7 H s       :     0.879086  s :     0.879086


                      *****************************
                      * MAYER POPULATION ANALYSIS *
                      *****************************

  NA   - Mulliken gross atomic population
  ZA   - Total nuclear charge
  QA   - Mulliken gross atomic charge
  VA   - Mayer's total valence
  BVA  - Mayer's bonded valence
  FA   - Mayer's free valence

  ATOM       NA         ZA         QA         VA         BVA        FA
  0 C      5.8391     6.0000     0.1609     3.7961     3.7961    -0.0000
  1 O      8.3204     8.0000    -0.3204     2.1087     2.1087    -0.0000
  2 C      6.1319     6.0000    -0.1319     3.7093     3.7093    -0.0000
  3 C      6.2717     6.0000    -0.2717     3.8491     3.8491    -0.0000
  4 H      0.9141     1.0000     0.0859     0.9333     0.9333    -0.0000
  5 H      0.8461     1.0000     0.1539     0.9529     0.9529    -0.0000
  6 H      0.8220     1.0000     0.1780     0.9495     0.9495    -0.0000
  7 H      0.8547     1.0000     0.1453     0.9430     0.9430    -0.0000

  Mayer bond orders larger than 0.100000
B(  0-C ,  1-O ) :   1.9412 B(  0-C ,  2-C ) :   0.9394 B(  0-C ,  4-H ) :   0.8797 
B(  2-C ,  3-C ) :   1.8684 B(  2-C ,  5-H ) :   0.9334 B(  3-C ,  6-H ) :   0.9327 
B(  3-C ,  7-H ) :   0.9432 

-------
TIMINGS
-------

Total SCF time: 0 days 0 hours 0 min 30 sec 

Total time                  ....      30.607 sec
Sum of individual times     ....      29.039 sec  ( 94.9%)

Fock matrix formation       ....      27.698 sec  ( 90.5%)
  Split-RI-J                ....       0.618 sec  (  2.2% of F)
  Chain of spheres X        ....      11.819 sec  ( 42.7% of F)
  XC integration            ....       7.695 sec  ( 27.8% of F)
    Basis function eval.    ....       1.001 sec  ( 13.0% of XC)
    Density eval.           ....       0.351 sec  (  4.6% of XC)
    XC-Functional eval.     ....       1.487 sec  ( 19.3% of XC)
    XC-Potential eval.      ....       0.243 sec  (  3.2% of XC)
Diagonalization             ....       0.003 sec  (  0.0%)
Density matrix formation    ....       0.000 sec  (  0.0%)
Population analysis         ....       0.002 sec  (  0.0%)
Initial guess               ....       0.160 sec  (  0.5%)
Orbital Transformation      ....       0.000 sec  (  0.0%)
Orbital Orthonormalization  ....       0.000 sec  (  0.0%)
DIIS solution               ....       0.001 sec  (  0.0%)
SOSCF solution              ....       0.037 sec  (  0.1%)
Grid generation             ....       1.137 sec  (  3.7%)

Maximum memory used throughout the entire SCF-calculation: 46.8 MB
------------------------------------------------------------------------------
                        ORCA TD-DFT/TDA CALCULATION
------------------------------------------------------------------------------

Input orbitals are from        ... acrolien.636.gbw
CI-vector output               ... acrolien.636.cis
Tamm-Dancoff approximation     ... operative
CIS-Integral strategy          ... AO-integrals
Integral handling              ... AO integral Direct
Max. core memory used          ... 512 MB
Reference state                ... RHF
Generation of triplets         ... off
Follow IRoot                   ... off
Number of operators            ... 1
Orbital ranges used for CIS calculation:
 Operator 0:  Orbitals   4... 14  to  15... 43
XAS localization array:
 Operator 0:  Orbitals  -1... -1

-------------------
XC-INTEGRATION GRID
-------------------

General Integration Accuracy     IntAcc      ... 3.467
Radial Grid Type                 RadialGrid  ... OptM3 with GC (2021)
Angular Grid (max. ang.)         AngularGrid ... 1 (Lebedev-50)
Angular grid pruning method      GridPruning ... 4 (adaptive)
Weight generation scheme         WeightScheme... Becke
Basis function cutoff            BFCut       ... 1.0000e-11
Integration weight cutoff        WCut        ... 1.0000e-14
Angular grids for H and He will be reduced by one unit
Partially contracted basis set               ... off
Rotationally invariant grid construction     ... off

Total number of grid points                  ...     5477
Total number of batches                      ...       91
Average number of points per batch           ...       60
Average number of grid points per atom       ...      685

---------------------
COSX-INTEGRATION GRID
---------------------

General Integration Accuracy     IntAcc      ... 3.067
Radial Grid Type                 RadialGrid  ... OptM3 with GC (2021)
Angular Grid (max. ang.)         AngularGrid ... 1 (Lebedev-50)
Angular grid pruning method      GridPruning ... 4 (adaptive)
Weight generation scheme         WeightScheme... Becke
Basis function cutoff            BFCut       ... 1.0000e-11
Integration weight cutoff        WCut        ... 1.0000e-14
Angular grids for H and He will be reduced by one unit
Partially contracted basis set               ... on
Rotationally invariant grid construction     ... off

Total number of grid points                  ...     2505
Total number of batches                      ...       45
Average number of points per batch           ...       55
Average number of grid points per atom       ...      313

---------------
TD-DFT XC SETUP
---------------

DFT calculation                         ... on
Name of the grid file                   ... acrolien.636.grid_cis.tmp
Exchange functional (TD-DFT)            ... WB88
Correlation functional (TD-DFT)         ... LYP
 LDA part of GGA corr.  LDAOpt (TD-DFT) ... VWN-5
Hybrid DFT                              ... on
   Exchange mixing (TD-DFT)             ...  0.190
   GGA exch. scaling (TD-DFT)           ...  0.350
   GGA corr. scaling (TD-DFT)           ...  0.810
Range-Separated Exchange                ... on
   Range Range separation parameter mu  .... 0.330
   Max. amount of RS exchange (TD-DFT)  ...  0.460

Building densities             ... done
Calculating rho(r) on the grid ... done
Building xc-kernel on the grid ... done
                    *** TD-DFT CALCULATION INITIALIZED ***

------------------------
DAVIDSON-DIAGONALIZATION
------------------------

Dimension of the eigenvalue problem            ...    319
Number of roots to be determined               ...      1
Maximum size of the expansion space            ...     10
Maximum number of iterations                   ...    100
Convergence tolerance for the residual         ...    2.500e-07
Convergence tolerance for the energies         ...    2.500e-07
Orthogonality tolerance                        ...    1.000e-14
Level Shift                                    ...    0.000e+00
Constructing the preconditioner                ... o.k.
Building the initial guess                     ... o.k.
Number of trial vectors determined             ...     10


                       ****Iteration    0****

   Memory handling for direct AO based CIS:
   Memory per vector needed      ...     1 MB
   Memory needed                 ...     0 MB
   Memory available              ...   512 MB
   Number of vectors per batch   ...   512
   Number of batches             ...     1
   Time for densities:            0.000
   Time for RI-J (Direct):        0.043
   Time for K (COSX):             0.253
   Time for XC-Integration:       0.038
   Time for Sigma-Completion:     0.000
   Size of expansion space: 3
   Lowest Energy          :     0.151437470105
   Maximum Energy change  :     0.151437470105 (vector 0)
   Maximum residual norm  :     0.001798282090

                       ****Iteration    1****
   Time for densities:            0.000
   Time for RI-J (Direct):        0.034
   Time for K (COSX):             0.348
   Time for XC-Integration:       0.022
   Time for Sigma-Completion:     0.000
   Size of expansion space: 4
   Lowest Energy          :     0.143834356973
   Maximum Energy change  :     0.007603113133 (vector 0)
   Maximum residual norm  :     0.000187972810

                       ****Iteration    2****
   Time for densities:            0.007
   Time for RI-J (Direct):        0.034
   Time for K (COSX):             0.470
   Time for XC-Integration:       0.022
   Time for Sigma-Completion:     0.000
   Size of expansion space: 5
   Lowest Energy          :     0.143419533345
   Maximum Energy change  :     0.000414823628 (vector 0)
   Maximum residual norm  :     0.000015920771

                       ****Iteration    3****
   Time for densities:            0.000
   Time for RI-J (Direct):        0.034
   Time for K (COSX):             0.401
   Time for XC-Integration:       0.022
   Time for Sigma-Completion:     0.000
   Size of expansion space: 6
   Lowest Energy          :     0.143396873447
   Maximum Energy change  :     0.000022659898 (vector 0)
   Maximum residual norm  :     0.000002853017

                       ****Iteration    4****
   Time for densities:            0.000
   Time for RI-J (Direct):        0.034
   Time for K (COSX):             0.246
   Time for XC-Integration:       0.022
   Time for Sigma-Completion:     0.000
   Size of expansion space: 7
   Lowest Energy          :     0.143393845840
   Maximum Energy change  :     0.000003027606 (vector 0)
   Maximum residual norm  :     0.000000302456

                       ****Iteration    5****
   Time for densities:            0.000
   Time for RI-J (Direct):        0.035
   Time for K (COSX):             0.247
   Time for XC-Integration:       0.023
   Time for Sigma-Completion:     0.000
   Size of expansion space: 8
   Lowest Energy          :     0.143393497608
   Maximum Energy change  :     0.000000348233 (vector 0)
   Maximum residual norm  :     0.000000023690

      *** CONVERGENCE OF RESIDUAL NORM REACHED ***

Storing the converged CI vectors               ... acrolien.636.cis1

                 *** DAVIDSON DONE ***

Total time for solving the CIS problem:     2.803sec

------------------------------------
TD-DFT/TDA EXCITED STATES (SINGLETS)
------------------------------------

the weight of the individual excitations are printed if larger than 1.0e-02

STATE  1:  E=   0.143393 au      3.902 eV    31471.2 cm**-1 <S**2> =   0.000000
    14a ->  15a  :     0.950126 (c= -0.97474407)
    14a ->  17a  :     0.041744 (c=  0.20431266)


-----------------------------
TD-DFT/TDA-EXCITATION SPECTRA
-----------------------------

Center of mass = ( -0.5814, -0.6959,  0.0447)
Calculating the Dipole integrals                  ... done
Transforming integrals                            ... done
Calculating the Linear Momentum integrals         ... done
Transforming integrals                            ... done
Calculating angular momentum integrals            ... done
Transforming integrals                            ... done

-----------------------------------------------------------------------------
         ABSORPTION SPECTRUM VIA TRANSITION ELECTRIC DIPOLE MOMENTS
-----------------------------------------------------------------------------
State   Energy    Wavelength  fosc         T2        TX        TY        TZ  
        (cm-1)      (nm)                 (au**2)    (au)      (au)      (au) 
-----------------------------------------------------------------------------
   1   31471.2    317.8   0.000168882   0.00177   0.01838   0.00482  -0.03749

-----------------------------------------------------------------------------
         ABSORPTION SPECTRUM VIA TRANSITION VELOCITY DIPOLE MOMENTS
-----------------------------------------------------------------------------
State   Energy    Wavelength   fosc        P2         PX        PY        PZ  
        (cm-1)      (nm)                 (au**2)     (au)      (au)      (au) 
-----------------------------------------------------------------------------
   1   31471.2    317.8   0.000365606   0.00008   0.00272  -0.00104   0.00838

-------------------------------------------------------------------
                             CD SPECTRUM
-------------------------------------------------------------------
State  Energy     Wavelength     R         MX        MY        MZ   
       (cm-1)       (nm)     (1e40*cgs)   (au)      (au)      (au)  
-------------------------------------------------------------------
   1   31471.2    317.8     -0.88018  -0.02963  -0.35490  -0.01037

-------------------------------------------------------------------
         CD SPECTRUM VIA TRANSITION VELOCITY DIPOLE MOMENTS        
-------------------------------------------------------------------
State  Energy     Wavelength     R         MX        MY        MZ   
       (cm-1)       (nm)     (1e40*cgs)   (au)      (au)      (au)  
-------------------------------------------------------------------
   1   31471.2    317.8      0.65989  -0.02963  -0.35490  -0.01037

Total run time:        4.274 sec

           *** ORCA-CIS/TD-DFT FINISHED WITHOUT ERROR ***

Maximum memory used throughout the entire CIS-calculation: 44.1 MB

-----------------------
CIS/TD-DFT TOTAL ENERGY
-----------------------

    E(SCF)  =   -191.714945039 Eh
    DE(CIS) =      0.143393498 Eh (Root  1)
    ----------------------------- ---------
    E(tot)  =   -191.571551541 Eh


-------------------------   --------------------
FINAL SINGLE POINT ENERGY      -191.571551541419
-------------------------   --------------------


                            ***************************************
                            *     ORCA property calculations      *
                            ***************************************

                                    ---------------------
                                    Active property flags
                                    ---------------------
   (+) Dipole Moment


------------------------------------------------------------------------------
                       ORCA ELECTRIC PROPERTIES CALCULATION
------------------------------------------------------------------------------

Dipole Moment Calculation                       ... on
Quadrupole Moment Calculation                   ... off
Polarizability Calculation                      ... off
GBWName                                         ... acrolien.636.gbw
Electron density                                ... acrolien.636.scfp
The origin for moment calculation is the CENTER OF MASS  = (-0.581445, -0.695905  0.044676)

-------------
DIPOLE MOMENT
-------------
                                X             Y             Z
Electronic contribution:     -1.76963      -1.67356       0.10369
Nuclear contribution   :      2.24772       2.58401      -0.10560
                        -----------------------------------------
Total Dipole Moment    :      0.47809       0.91045      -0.00191
                        -----------------------------------------
Magnitude (a.u.)       :      1.02835
Magnitude (Debye)      :      2.61385



--------------------
Rotational spectrum 
--------------------
 
Rotational constants in cm-1:     0.738927     0.220581     0.169948 
Rotational constants in MHz : 22152.469149  6612.860315  5094.925467 

 Dipole components along the rotational axes: 
x,y,z [a.u.] :     0.894206    -0.507830     0.000821 
x,y,z [Debye]:     2.272892    -1.290801     0.002088 

 

Timings for individual modules:

Sum of individual times         ...       35.224 sec (=   0.587 min)
GTO integral calculation        ...        0.287 sec (=   0.005 min)   0.8 %
SCF iterations                  ...       30.624 sec (=   0.510 min)  86.9 %
CIS module                      ...        4.313 sec (=   0.072 min)  12.2 %
                             ****ORCA TERMINATED NORMALLY****
TOTAL RUN TIME: 0 days 0 hours 0 minutes 35 seconds 679 msec
