
                                 *****************
                                 * O   R   C   A *
                                 *****************

                                            #,                                       
                                            ###                                      
                                            ####                                     
                                            #####                                    
                                            ######                                   
                                           ########,                                 
                                     ,,################,,,,,                         
                               ,,#################################,,                 
                          ,,##########################################,,             
                       ,#########################################, ''#####,          
                    ,#############################################,,   '####,        
                  ,##################################################,,,,####,       
                ,###########''''           ''''###############################       
              ,#####''   ,,,,##########,,,,          '''####'''          '####       
            ,##' ,,,,###########################,,,                        '##       
           ' ,,###''''                  '''############,,,                           
         ,,##''                                '''############,,,,        ,,,,,,###''
      ,#''                                            '''#######################'''  
     '                                                          ''''####''''         
             ,#######,   #######,   ,#######,      ##                                
            ,#'     '#,  ##    ##  ,#'     '#,    #''#        ######   ,####,        
            ##       ##  ##   ,#'  ##            #'  '#       #        #'  '#        
            ##       ##  #######   ##           ,######,      #####,   #    #        
            '#,     ,#'  ##    ##  '#,     ,#' ,#      #,         ##   #,  ,#        
             '#######'   ##     ##  '#######'  #'      '#     #####' # '####'        



                  #######################################################
                  #                        -***-                        #
                  #          Department of theory and spectroscopy      #
                  #    Directorship and core code : Frank Neese         #
                  #        Max Planck Institute fuer Kohlenforschung    #
                  #                Kaiser Wilhelm Platz 1               #
                  #                 D-45470 Muelheim/Ruhr               #
                  #                      Germany                        #
                  #                                                     #
                  #                  All rights reserved                #
                  #                        -***-                        #
                  #######################################################


                         Program Version 5.0.3 -  RELEASE  -


 With contributions from (in alphabetic order):
   Daniel Aravena         : Magnetic Suceptibility
   Michael Atanasov       : Ab Initio Ligand Field Theory (pilot matlab implementation)
   Alexander A. Auer      : GIAO ZORA, VPT2 properties, NMR spectrum
   Ute Becker             : Parallelization
   Giovanni Bistoni       : ED, misc. LED, open-shell LED, HFLD
   Martin Brehm           : Molecular dynamics
   Dmytro Bykov           : SCF Hessian
   Vijay G. Chilkuri      : MRCI spin determinant printing, contributions to CSF-ICE
   Dipayan Datta          : RHF DLPNO-CCSD density
   Achintya Kumar Dutta   : EOM-CC, STEOM-CC
   Dmitry Ganyushin       : Spin-Orbit,Spin-Spin,Magnetic field MRCI
   Miquel Garcia          : C-PCM and meta-GGA Hessian, CC/C-PCM, Gaussian charge scheme
   Yang Guo               : DLPNO-NEVPT2, F12-NEVPT2, CIM, IAO-localization
   Andreas Hansen         : Spin unrestricted coupled pair/coupled cluster methods
   Benjamin Helmich-Paris : MC-RPA, TRAH-SCF, COSX integrals
   Lee Huntington         : MR-EOM, pCC
   Robert Izsak           : Overlap fitted RIJCOSX, COSX-SCS-MP3, EOM
   Marcus Kettner         : VPT2
   Christian Kollmar      : KDIIS, OOCD, Brueckner-CCSD(T), CCSD density, CASPT2, CASPT2-K
   Simone Kossmann        : Meta GGA functionals, TD-DFT gradient, OOMP2, MP2 Hessian
   Martin Krupicka        : Initial AUTO-CI
   Lucas Lang             : DCDCAS
   Marvin Lechner         : AUTO-CI (C++ implementation), FIC-MRCC
   Dagmar Lenk            : GEPOL surface, SMD
   Dimitrios Liakos       : Extrapolation schemes; Compound Job, initial MDCI parallelization
   Dimitrios Manganas     : Further ROCIS development; embedding schemes
   Dimitrios Pantazis     : SARC Basis sets
   Anastasios Papadopoulos: AUTO-CI, single reference methods and gradients
   Taras Petrenko         : DFT Hessian,TD-DFT gradient, ASA, ECA, R-Raman, ABS, FL, XAS/XES, NRVS
   Peter Pinski           : DLPNO-MP2, DLPNO-MP2 Gradient
   Christoph Reimann      : Effective Core Potentials
   Marius Retegan         : Local ZFS, SOC
   Christoph Riplinger    : Optimizer, TS searches, QM/MM, DLPNO-CCSD(T), (RO)-DLPNO pert. Triples
   Tobias Risthaus        : Range-separated hybrids, TD-DFT gradient, RPA, STAB
   Michael Roemelt        : Original ROCIS implementation
   Masaaki Saitow         : Open-shell DLPNO-CCSD energy and density
   Barbara Sandhoefer     : DKH picture change effects
   Avijit Sen             : IP-ROCIS
   Kantharuban Sivalingam : CASSCF convergence, NEVPT2, FIC-MRCI
   Bernardo de Souza      : ESD, SOC TD-DFT
   Georgi Stoychev        : AutoAux, RI-MP2 NMR, DLPNO-MP2 response
   Willem Van den Heuvel  : Paramagnetic NMR
   Boris Wezisla          : Elementary symmetry handling
   Frank Wennmohs         : Technical directorship


 We gratefully acknowledge several colleagues who have allowed us to
 interface, adapt or use parts of their codes:
   Stefan Grimme, W. Hujo, H. Kruse, P. Pracht,  : VdW corrections, initial TS optimization,
                  C. Bannwarth, S. Ehlert          DFT functionals, gCP, sTDA/sTD-DF
   Ed Valeev, F. Pavosevic, A. Kumar             : LibInt (2-el integral package), F12 methods
   Garnet Chan, S. Sharma, J. Yang, R. Olivares  : DMRG
   Ulf Ekstrom                                   : XCFun DFT Library
   Mihaly Kallay                                 : mrcc  (arbitrary order and MRCC methods)
   Jiri Pittner, Ondrej Demel                    : Mk-CCSD
   Frank Weinhold                                : gennbo (NPA and NBO analysis)
   Christopher J. Cramer and Donald G. Truhlar   : smd solvation model
   Lars Goerigk                                  : TD-DFT with DH, B97 family of functionals
   V. Asgeirsson, H. Jonsson                     : NEB implementation
   FAccTs GmbH                                   : IRC, NEB, NEB-TS, DLPNO-Multilevel, CI-OPT
                                                   MM, QMMM, 2- and 3-layer-ONIOM, Crystal-QMMM,
                                                   LR-CPCM, SF, NACMEs, symmetry and pop. for TD-DFT,
                                                   nearIR, NL-DFT gradient (VV10), updates on ESD,
                                                   ML-optimized integration grids
   S Lehtola, MJT Oliveira, MAL Marques          : LibXC Library
   Liviu Ungur et al                             : ANISO software


 Your calculation uses the libint2 library for the computation of 2-el integrals
 For citations please refer to: http://libint.valeyev.net

 Your ORCA version has been built with support for libXC version: 5.1.0
 For citations please refer to: https://tddft.org/programs/libxc/

 This ORCA versions uses:
   CBLAS   interface :  Fast vector & matrix operations
   LAPACKE interface :  Fast linear algebra routines
   SCALAPACK package :  Parallel linear algebra routines
   Shared memory     :  Shared parallel matrices
   BLAS/LAPACK       :  OpenBLAS 0.3.15  USE64BITINT DYNAMIC_ARCH NO_AFFINITY Haswell SINGLE_THREADED
        Core in use  :  Haswell
   Copyright (c) 2011-2014, The OpenBLAS Project


XCFun DFT library Copyright 2009-2010 Ulf Ekstrom and contributors.
See http://admol.org/xcfun for more information.
This is free software; see the source code for copying conditions.
There is ABSOLUTELY NO WARRANTY; not even for MERCHANTABILITY or FITNESS FOR A PARTICULAR PURPOSE.
For details see the documentation.
Scientific users of this library should cite U. Ekstrom, L. Visscher, R. Bast, A. J. Thorvaldsen and K. Ruud;
J.Chem.Theor.Comp. 2010, DOI: 10.1021/ct100117s
XCFun Version 0.99 

================================================================================

----- Orbital basis set information -----
Your calculation utilizes the basis: 6-31G
   H-He, Li-Ne : W. J. Hehre, R. Ditchfield and J.A. Pople, J. Chem. Phys. 56, 2257 (1972).
                 Note: He and Ne are unpublished basis sets taken from the Gaussian program.
                 Note: Li and B from J. D. Dill and J. A. Pople, J. Chem. Phys. 62, 2921 (1975).
   Na - Ar     : M. M. Francl, W. J. Pietro, W. J. Hehre, J. S. Binkley, M. S. Gordon, 
                 D. J. DeFrees and J. A. Pople, J. Chem. Phys. 77, 3654 (1982).
   K - Zn      : V. A. Rassolov, J. A. Pople, M. A. Ratner, and T. L. Windus, J. Chem. Phys. 109, 1223 (1998).

----- AuxJ basis set information -----
Your calculation utilizes the auxiliary basis: def2/J
   F. Weigend, Phys. Chem. Chem. Phys. 8, 1057 (2006).

================================================================================
                                        WARNINGS
                       Please study these warnings very carefully!
================================================================================

INFO   : Checking CIS options ...

INFO   : the flag for use of the SHARK integral package has been found!

================================================================================
                                       INPUT FILE
================================================================================
NAME = acrolien.871.com
|  1> ! RKS CAM-B3LYP 6-31G
|  2> !TightSCF
|  3> %scf
|  4>  ConvForced true
|  5>  convergence tight
|  6>  MaxIter 500
|  7> end
|  8>  
|  9> %tddft 
| 10>  nroots 1
| 11> end
| 12> 
| 13> # 	16889
| 14> * xyz 0 1
| 15> 		C   -1.218238  -0.357424   0.061268
| 16> 		O   -1.555046  -1.213818   0.798017
| 17> 		C    0.027667   0.481853   0.150977
| 18> 		C    1.202247  -0.010650  -0.128739
| 19> 		H   -1.726412  -0.114577  -0.932439
| 20> 		H   -0.125993   1.573941   0.680536
| 21> 		H    1.294624  -1.120822  -0.567425
| 22> 		H    2.095248   0.712785  -0.090170
| 23> *
| 24> 
| 25>                          ****END OF INPUT****
================================================================================

                       ****************************
                       * Single Point Calculation *
                       ****************************

---------------------------------
CARTESIAN COORDINATES (ANGSTROEM)
---------------------------------
  C     -1.218238   -0.357424    0.061268
  O     -1.555046   -1.213818    0.798017
  C      0.027667    0.481853    0.150977
  C      1.202247   -0.010650   -0.128739
  H     -1.726412   -0.114577   -0.932439
  H     -0.125993    1.573941    0.680536
  H      1.294624   -1.120822   -0.567425
  H      2.095248    0.712785   -0.090170

----------------------------
CARTESIAN COORDINATES (A.U.)
----------------------------
  NO LB      ZA    FRAG     MASS         X           Y           Z
   0 C     6.0000    0    12.011   -2.302136   -0.675433    0.115780
   1 O     8.0000    0    15.999   -2.938611   -2.293784    1.508034
   2 C     6.0000    0    12.011    0.052283    0.910570    0.285305
   3 C     6.0000    0    12.011    2.271918   -0.020126   -0.243281
   4 H     1.0000    0     1.008   -3.262446   -0.216519   -1.762054
   5 H     1.0000    0     1.008   -0.238092    2.974317    1.286027
   6 H     1.0000    0     1.008    2.446485   -2.118047   -1.072278
   7 H     1.0000    0     1.008    3.959445    1.346968   -0.170397

--------------------------------
INTERNAL COORDINATES (ANGSTROEM)
--------------------------------
 C      0   0   0     0.000000000000     0.00000000     0.00000000
 O      1   0   0     1.178833915826     0.00000000     0.00000000
 C      1   2   0     1.504896294246   127.18852328     0.00000000
 C      3   1   2     1.304008597389   121.48718129    72.99621458
 H      1   2   3     1.142221117619   124.82429405   171.50056802
 H      3   1   2     1.223397045045   114.81294442   262.97564470
 H      4   3   1     1.197272227319   119.88768570     5.95300906
 H      4   3   1     1.149911541375   117.04557651   176.77319677

---------------------------
INTERNAL COORDINATES (A.U.)
---------------------------
 C      0   0   0     0.000000000000     0.00000000     0.00000000
 O      1   0   0     2.227673258289     0.00000000     0.00000000
 C      1   2   0     2.843841856078   127.18852328     0.00000000
 C      3   1   2     2.464219125344   121.48718129    72.99621458
 H      1   2   3     2.158485096681   124.82429405   171.50056802
 H      3   1   2     2.311885368184   114.81294442   262.97564470
 H      4   3   1     2.262516617383   119.88768570     5.95300906
 H      4   3   1     2.173017891434   117.04557651   176.77319677

---------------------
BASIS SET INFORMATION
---------------------
There are 3 groups of distinct atoms

 Group   1 Type C   : 10s4p contracted to 3s2p pattern {631/31}
 Group   2 Type O   : 10s4p contracted to 3s2p pattern {631/31}
 Group   3 Type H   : 4s contracted to 2s pattern {31}

Atom   0C    basis set group =>   1
Atom   1O    basis set group =>   2
Atom   2C    basis set group =>   1
Atom   3C    basis set group =>   1
Atom   4H    basis set group =>   3
Atom   5H    basis set group =>   3
Atom   6H    basis set group =>   3
Atom   7H    basis set group =>   3
---------------------------------
AUXILIARY/J BASIS SET INFORMATION
---------------------------------
There are 3 groups of distinct atoms

 Group   1 Type C   : 12s5p4d2f1g contracted to 6s4p3d1f1g pattern {711111/2111/211/2/1}
 Group   2 Type O   : 12s5p4d2f1g contracted to 6s4p3d1f1g pattern {711111/2111/211/2/1}
 Group   3 Type H   : 5s2p1d contracted to 3s1p1d pattern {311/2/1}

Atom   0C    basis set group =>   1
Atom   1O    basis set group =>   2
Atom   2C    basis set group =>   1
Atom   3C    basis set group =>   1
Atom   4H    basis set group =>   3
Atom   5H    basis set group =>   3
Atom   6H    basis set group =>   3
Atom   7H    basis set group =>   3
------------------------------------------------------------------------------
                           ORCA GTO INTEGRAL CALCULATION
                           -- RI-GTO INTEGRALS CHOSEN --
------------------------------------------------------------------------------
------------------------------------------------------------------------------
                   ___                                                        
                  /   \      - P O W E R E D   B Y -                         
                 /     \                                                     
                 |  |  |   _    _      __       _____    __    __             
                 |  |  |  | |  | |    /  \     |  _  \  |  |  /  |          
                  \  \/   | |  | |   /    \    | | | |  |  | /  /          
                 / \  \   | |__| |  /  /\  \   | |_| |  |  |/  /          
                |  |  |   |  __  | /  /__\  \  |    /   |      \           
                |  |  |   | |  | | |   __   |  |    \   |  |\   \          
                \     /   | |  | | |  |  |  |  | |\  \  |  | \   \       
                 \___/    |_|  |_| |__|  |__|  |_| \__\ |__|  \__/        
                                                                              
                      - O R C A' S   B I G   F R I E N D -                    
                                      &                                       
                       - I N T E G R A L  F E E D E R -                       
                                                                              
 v1 FN, 2020, v2 2021                                                         
------------------------------------------------------------------------------


Reading SHARK input file acrolien.871.SHARKINP.tmp ... ok
----------------------
SHARK INTEGRAL PACKAGE
----------------------

Number of atoms                             ...      8
Number of basis functions                   ...     44
Number of shells                            ...     28
Maximum angular momentum                    ...      1
Integral batch strategy                     ... SHARK/LIBINT Hybrid
RI-J (if used) integral strategy            ... SPLIT-RIJ (Revised 2003 algorithm where possible)
Printlevel                                  ...      1
Contraction scheme used                     ... SEGMENTED contraction
Coulomb Range Separation                    ... NOT USED
Exchange Range Separation                   ... Long Range
   Mu parameter                             ...  0.330000
   Scaling (regular/separated)              ...  0.190000  0.460000
Finite Nucleus Model                        ... NOT USED
Auxiliary Coulomb fitting basis             ... AVAILABLE
   # of basis functions in Aux-J            ...    240
   # of shells in Aux-J                     ...     80
   Maximum angular momentum in Aux-J        ...      4
Auxiliary J/K fitting basis                 ... NOT available
Auxiliary Correlation fitting basis         ... NOT available
Auxiliary 'external' fitting basis          ... NOT available
Integral threshold                          ...     2.500000e-11
Primitive cut-off                           ...     2.500000e-12
Primitive pair pre-selection threshold      ...     2.500000e-12

Calculating pre-screening integrals         ... done (  0.0 sec) Dimension = 28
Organizing shell pair data                  ... done (  0.0 sec)
Shell pair information
Total number of shell pairs                 ...       406
Shell pairs after pre-screening             ...       401
Total number of primitive shell pairs       ...      2724
Primitive shell pairs kept                  ...      1998
          la=0 lb=0:    205 shell pairs
          la=1 lb=0:    160 shell pairs
          la=1 lb=1:     36 shell pairs

Calculating one electron integrals          ... done (  0.0 sec)
Calculating RI/J V-Matrix + Cholesky decomp.... done (  0.1 sec)
Calculating Nuclear repulsion               ... done (  0.0 sec) ENN=    103.252915455184 Eh

SHARK setup successfully completed in   0.3 seconds

Maximum memory used throughout the entire GTOINT-calculation: 8.3 MB
-------------------------------------------------------------------------------
                                 ORCA SCF
-------------------------------------------------------------------------------

------------
SCF SETTINGS
------------
Hamiltonian:
 Density Functional     Method          .... DFT(GTOs)
 Exchange Functional    Exchange        .... WB88
 Correlation Functional Correlation     .... LYP
 LDA part of GGA corr.  LDAOpt          .... VWN-5
 Gradients option       PostSCFGGA      .... off
 Hybrid DFT is turned on
   Fraction HF Exchange ScalHFX         ....  0.190000
   Scaling of DF-GGA-X  ScalDFX         ....  0.350000
   Scaling of DF-GGA-C  ScalDFC         ....  0.810000
   Scaling of DF-LDA-C  ScalLDAC        ....  1.000000
   Perturbative correction              ....  0.000000
   Density functional embedding theory  .... OFF
 Long-range corrected/Screened/Range-Separated Hybrid DFT is turned on
   Amount of maximum screened exact exchange              ....  0.460000
   Range separation parameter mu (erf(mu*r12)/r12)        ....  0.330000
 RI-approximation to the Coulomb term is turned on
   Number of AuxJ basis functions       .... 240
   RIJ-COSX (HFX calculated with COS-X)).... on


General Settings:
 Integral files         IntName         .... acrolien.871
 Hartree-Fock type      HFTyp           .... RHF
 Total Charge           Charge          ....    0
 Multiplicity           Mult            ....    1
 Number of Electrons    NEL             ....   30
 Basis Dimension        Dim             ....   44
 Nuclear Repulsion      ENuc            ....    103.2529154552 Eh

Convergence Acceleration:
 DIIS                   CNVDIIS         .... on
   Start iteration      DIISMaxIt       ....    12
   Startup error        DIISStart       ....  0.200000
   # of expansion vecs  DIISMaxEq       ....     5
   Bias factor          DIISBfac        ....   1.050
   Max. coefficient     DIISMaxC        ....  10.000
 Trust-Rad. Augm. Hess. CNVTRAH         .... auto
   Auto Start mean grad. ratio tolernc. ....  1.125000
   Auto Start start iteration           ....    20
   Auto Start num. interpolation iter.  ....    10
   Max. Number of Micro iterations      ....    16
   Max. Number of Macro iterations      .... Maxiter - #DIIS iter
   Number of Davidson start vectors     ....     2
   Converg. threshold I  (grad. norm)   ....   1.000e-05
   Converg. threshold II (energy diff.) ....   1.000e-08
   Grad. Scal. Fac. for Micro threshold ....   0.100
   Minimum threshold for Micro iter.    ....   0.010
   NR start threshold (gradient norm)   ....   0.001
   Initial trust radius                 ....   0.400
   Minimum AH scaling param. (alpha)    ....   1.000
   Maximum AH scaling param. (alpha)    .... 1000.000
   Orbital update algorithm             .... Taylor
   White noise on init. David. guess    .... on
   Maximum white noise                  ....   0.010
   Quad. conv. algorithm                .... NR
 SOSCF                  CNVSOSCF        .... on
   Start iteration      SOSCFMaxIt      ....   150
   Startup grad/error   SOSCFStart      ....  0.003300
 Level Shifting         CNVShift        .... on
   Level shift para.    LevelShift      ....    0.2500
   Turn off err/grad.   ShiftErr        ....    0.0010
 Zerner damping         CNVZerner       .... off
 Static damping         CNVDamp         .... on
   Fraction old density DampFac         ....    0.7000
   Max. Damping (<1)    DampMax         ....    0.9800
   Min. Damping (>=0)   DampMin         ....    0.0000
   Turn off err/grad.   DampErr         ....    0.1000
 Fernandez-Rico         CNVRico         .... off

SCF Procedure:
 Maximum # iterations   MaxIter         ....   500
 SCF integral mode      SCFMode         .... Direct
   Integral package                     .... SHARK and LIBINT hybrid scheme
 Reset frequency        DirectResetFreq ....    20
 Integral Threshold     Thresh          ....  2.500e-11 Eh
 Primitive CutOff       TCut            ....  2.500e-12 Eh

Convergence Tolerance:
 Convergence Check Mode ConvCheckMode   .... Total+1el-Energy
 Convergence forced     ConvForced      .... 1
 Energy Change          TolE            ....  1.000e-08 Eh
 1-El. energy change                    ....  1.000e-05 Eh
 Orbital Gradient       TolG            ....  1.000e-05
 Orbital Rotation angle TolX            ....  1.000e-05
 DIIS Error             TolErr          ....  5.000e-07


Diagonalization of the overlap matrix:
Smallest eigenvalue                        ... 6.517e-03
Time for diagonalization                   ...    0.001 sec
Threshold for overlap eigenvalues          ... 1.000e-08
Number of eigenvalues below threshold      ... 0
Time for construction of square roots      ...    0.058 sec
Total time needed                          ...    0.058 sec

Time for model grid setup =    0.053 sec

------------------------------
INITIAL GUESS: MODEL POTENTIAL
------------------------------
Loading Hartree-Fock densities                     ... done
Calculating cut-offs                               ... done
Initializing the effective Hamiltonian             ... done
Setting up the integral package (SHARK)            ... done
Starting the Coulomb interaction                   ... done (   0.1 sec)
Reading the grid                                   ... done
Mapping shells                                     ... done
Starting the XC term evaluation                    ... done (   0.0 sec)
  promolecular density results
     # of electrons  =     29.998220847
     EX              =    -24.573087241
     EC              =     -0.961340299
     EX+EC           =    -25.534427540
Transforming the Hamiltonian                       ... done (   0.0 sec)
Diagonalizing the Hamiltonian                      ... done (   0.0 sec)
Back transforming the eigenvectors                 ... done (   0.0 sec)
Now organizing SCF variables                       ... done
                      ------------------
                      INITIAL GUESS DONE (   0.2 sec)
                      ------------------
-------------------
DFT GRID GENERATION
-------------------

General Integration Accuracy     IntAcc      ... 4.388
Radial Grid Type                 RadialGrid  ... OptM3 with GC (2021)
Angular Grid (max. ang.)         AngularGrid ... 4 (Lebedev-302)
Angular grid pruning method      GridPruning ... 4 (adaptive)
Weight generation scheme         WeightScheme... Becke
Basis function cutoff            BFCut       ... 1.0000e-11
Integration weight cutoff        WCut        ... 1.0000e-14
Angular grids for H and He will be reduced by one unit
Partially contracted basis set               ... off
Rotationally invariant grid construction     ... off

Total number of grid points                  ...    37431
Total number of batches                      ...      589
Average number of points per batch           ...       63
Average number of grid points per atom       ...     4679
Time for grid setup =    0.243 sec

--------------------
COSX GRID GENERATION
--------------------

GRIDX 1
-------
General Integration Accuracy     IntAcc      ... 3.816
Radial Grid Type                 RadialGrid  ... OptM3 with GC (2021)
Angular Grid (max. ang.)         AngularGrid ... 1 (Lebedev-50)
Angular grid pruning method      GridPruning ... 4 (adaptive)
Weight generation scheme         WeightScheme... Becke
Basis function cutoff            BFCut       ... 1.0000e-11
Integration weight cutoff        WCut        ... 1.0000e-14
Angular grids for H and He will be reduced by one unit
Partially contracted basis set               ... on
Rotationally invariant grid construction     ... off

Total number of grid points                  ...     4807
Total number of batches                      ...       79
Average number of points per batch           ...       60
Average number of grid points per atom       ...      601
UseSFitting                                  ... on

GRIDX 2
-------
General Integration Accuracy     IntAcc      ... 4.020
Radial Grid Type                 RadialGrid  ... OptM3 with GC (2021)
Angular Grid (max. ang.)         AngularGrid ... 2 (Lebedev-110)
Angular grid pruning method      GridPruning ... 4 (adaptive)
Weight generation scheme         WeightScheme... Becke
Basis function cutoff            BFCut       ... 1.0000e-11
Integration weight cutoff        WCut        ... 1.0000e-14
Angular grids for H and He will be reduced by one unit
Partially contracted basis set               ... on
Rotationally invariant grid construction     ... off

Total number of grid points                  ...    10581
Total number of batches                      ...      170
Average number of points per batch           ...       62
Average number of grid points per atom       ...     1323
UseSFitting                                  ... on

GRIDX 3
-------
General Integration Accuracy     IntAcc      ... 4.338
Radial Grid Type                 RadialGrid  ... OptM3 with GC (2021)
Angular Grid (max. ang.)         AngularGrid ... 3 (Lebedev-194)
Angular grid pruning method      GridPruning ... 4 (adaptive)
Weight generation scheme         WeightScheme... Becke
Basis function cutoff            BFCut       ... 1.0000e-11
Integration weight cutoff        WCut        ... 1.0000e-14
Angular grids for H and He will be reduced by one unit
Partially contracted basis set               ... on
Rotationally invariant grid construction     ... off

Total number of grid points                  ...    23349
Total number of batches                      ...      368
Average number of points per batch           ...       63
Average number of grid points per atom       ...     2919
UseSFitting                                  ... on

Time for X-Grid setup             =    0.625 sec

--------------
SCF ITERATIONS
--------------
ITER       Energy         Delta-E        Max-DP      RMS-DP      [F,P]     Damp
               ***  Starting incremental Fock matrix formation  ***
  0   -191.5988540968   0.000000000000 0.06936720  0.00556997  0.2130719 0.7000
  1   -191.6499775655  -0.051123468657 0.03872222  0.00370325  0.0880619 0.7000
                               ***Turning on DIIS***
  2   -191.6706151826  -0.020637617146 0.06499778  0.00610944  0.0355444 0.0000
  3   -191.7047671926  -0.034152010000 0.02994905  0.00254164  0.0486544 0.0000
  4   -191.7108167845  -0.006049591838 0.00714879  0.00070508  0.0108427 0.0000
                      *** Initiating the SOSCF procedure ***
                           *** Shutting down DIIS ***
                      *** Re-Reading the Fockian *** 
                      *** Removing any level shift *** 
ITER      Energy       Delta-E        Grad      Rot      Max-DP    RMS-DP
  5   -191.71123085  -0.0004140608  0.000881  0.000881  0.002653  0.000230
               *** Restarting incremental Fock matrix formation ***
  6   -191.71122930   0.0000015445  0.000323  0.000666  0.001462  0.000128
  7   -191.71123290  -0.0000036002  0.000153  0.000525  0.001003  0.000078
  8   -191.71123337  -0.0000004692  0.000137  0.000187  0.000232  0.000021
  9   -191.71123354  -0.0000001685  0.000037  0.000064  0.000168  0.000014
 10   -191.71123355  -0.0000000115  0.000027  0.000033  0.000084  0.000007
 11   -191.71123357  -0.0000000155  0.000008  0.000020  0.000022  0.000002
 12   -191.71123357  -0.0000000007  0.000007  0.000009  0.000012  0.000001
                  ***Gradient check signals convergence***
              ***Rediagonalizing the Fockian in SOSCF/NRSCF***

               *****************************************************
               *                     SUCCESS                       *
               *           SCF CONVERGED AFTER  13 CYCLES          *
               *****************************************************

Old exchange energy                            =     -7.096210498 Eh
New exchange energy                            =     -7.096200485 Eh
Exchange energy change after final integration =      0.000010012 Eh
Total energy after final integration           =   -191.711223555 Eh
Final COS-X integration done in                =     2.028 sec

----------------
TOTAL SCF ENERGY
----------------

Total Energy       :         -191.71122355 Eh           -5216.72761 eV

Components:
Nuclear Repulsion  :          103.25291546 Eh            2809.65467 eV
Electronic Energy  :         -294.96413901 Eh           -8026.38228 eV
One Electron Energy:         -463.38289606 Eh          -12609.28965 eV
Two Electron Energy:          168.41875705 Eh            4582.90737 eV
Max COSX asymmetry :            0.00000182 Eh               0.00005 eV

Virial components:
Potential Energy   :         -382.28779848 Eh          -10402.57985 eV
Kinetic Energy     :          190.57657492 Eh            5185.85225 eV
Virial Ratio       :            2.00595377


DFT components:
N(Alpha)           :       14.999997011548 electrons
N(Beta)            :       14.999997011548 electrons
N(Total)           :       29.999994023096 electrons
E(XC)              :      -19.013759432150 Eh       
DFET-embed. en.    :        0.000000000000 Eh       

---------------
SCF CONVERGENCE
---------------

  Last Energy change         ...   -5.7767e-10  Tolerance :   1.0000e-08
  Last MAX-Density change    ...    2.6645e-15  Tolerance :   1.0000e-07
  Last RMS-Density change    ...    9.6345e-17  Tolerance :   5.0000e-09
  Last Orbital Gradient      ...    1.7009e-06  Tolerance :   1.0000e-05
  Last Orbital Rotation      ...    6.3847e-06  Tolerance :   1.0000e-05

             **** THE GBW FILE WAS UPDATED (acrolien.871.gbw) ****
             **** DENSITY acrolien.871.scfp WAS UPDATED ****
             **** ENERGY FILE WAS UPDATED (acrolien.871.en.tmp) ****
             **** THE GBW FILE WAS UPDATED (acrolien.871.gbw) ****
             **** DENSITY acrolien.871.scfp WAS UPDATED ****
----------------
ORBITAL ENERGIES
----------------

  NO   OCC          E(Eh)            E(eV) 
   0   2.0000     -19.239907      -523.5445 
   1   2.0000     -10.366930      -282.0985 
   2   2.0000     -10.288759      -279.9714 
   3   2.0000     -10.287299      -279.9316 
   4   2.0000      -1.182490       -32.1772 
   5   2.0000      -0.884018       -24.0554 
   6   2.0000      -0.724642       -19.7185 
   7   2.0000      -0.613377       -16.6908 
   8   2.0000      -0.566272       -15.4090 
   9   2.0000      -0.528993       -14.3946 
  10   2.0000      -0.515838       -14.0367 
  11   2.0000      -0.464605       -12.6426 
  12   2.0000      -0.438621       -11.9355 
  13   2.0000      -0.353520        -9.6198 
  14   2.0000      -0.320651        -8.7254 
  15   0.0000       0.020841         0.5671 
  16   0.0000       0.053339         1.4514 
  17   0.0000       0.136374         3.7109 
  18   0.0000       0.148715         4.0467 
  19   0.0000       0.174503         4.7485 
  20   0.0000       0.227094         6.1795 
  21   0.0000       0.329404         8.9635 
  22   0.0000       0.362227         9.8567 
  23   0.0000       0.393323        10.7029 
  24   0.0000       0.568250        15.4629 
  25   0.0000       0.595637        16.2081 
  26   0.0000       0.612717        16.6729 
  27   0.0000       0.654959        17.8223 
  28   0.0000       0.698771        19.0145 
  29   0.0000       0.773296        21.0425 
  30   0.0000       0.791636        21.5415 
  31   0.0000       0.813491        22.1362 
  32   0.0000       0.846323        23.0296 
  33   0.0000       0.874948        23.8085 
  34   0.0000       0.899613        24.4797 
  35   0.0000       0.916633        24.9429 
  36   0.0000       0.947488        25.7825 
  37   0.0000       1.022812        27.8321 
  38   0.0000       1.059275        28.8243 
  39   0.0000       1.084597        29.5134 
  40   0.0000       1.159550        31.5530 
  41   0.0000       1.240832        33.7648 
  42   0.0000       1.314441        35.7678 
  43   0.0000       1.824501        49.6472 

                    ********************************
                    * MULLIKEN POPULATION ANALYSIS *
                    ********************************

-----------------------
MULLIKEN ATOMIC CHARGES
-----------------------
   0 C :    0.154025
   1 O :   -0.315587
   2 C :   -0.126909
   3 C :   -0.282343
   4 H :    0.109030
   5 H :    0.162930
   6 H :    0.151830
   7 H :    0.147024
Sum of atomic charges:   -0.0000000

--------------------------------
MULLIKEN REDUCED ORBITAL CHARGES
--------------------------------
  0 C s       :     3.187264  s :     3.187264
      pz      :     0.915756  p :     2.658711
      px      :     0.949323
      py      :     0.793632
  1 O s       :     3.915288  s :     3.915288
      pz      :     1.485818  p :     4.400299
      px      :     1.598965
      py      :     1.315516
  2 C s       :     3.195280  s :     3.195280
      pz      :     1.002247  p :     2.931629
      px      :     0.920746
      py      :     1.008635
  3 C s       :     3.292881  s :     3.292881
      pz      :     0.992388  p :     2.989462
      px      :     0.981288
      py      :     1.015786
  4 H s       :     0.890970  s :     0.890970
  5 H s       :     0.837070  s :     0.837070
  6 H s       :     0.848170  s :     0.848170
  7 H s       :     0.852976  s :     0.852976


                     *******************************
                     * LOEWDIN POPULATION ANALYSIS *
                     *******************************

----------------------
LOEWDIN ATOMIC CHARGES
----------------------
   0 C :    0.115921
   1 O :   -0.188219
   2 C :   -0.183167
   3 C :   -0.206646
   4 H :    0.071285
   5 H :    0.133513
   6 H :    0.128246
   7 H :    0.129067

-------------------------------
LOEWDIN REDUCED ORBITAL CHARGES
-------------------------------
  0 C s       :     2.973985  s :     2.973985
      pz      :     1.004960  p :     2.910094
      px      :     0.988793
      py      :     0.916341
  1 O s       :     3.608631  s :     3.608631
      pz      :     1.557636  p :     4.579588
      px      :     1.632274
      py      :     1.389678
  2 C s       :     2.987431  s :     2.987431
      pz      :     1.011182  p :     3.195736
      px      :     1.104391
      py      :     1.080164
  3 C s       :     3.015915  s :     3.015915
      pz      :     1.005393  p :     3.190731
      px      :     1.100015
      py      :     1.085323
  4 H s       :     0.928715  s :     0.928715
  5 H s       :     0.866487  s :     0.866487
  6 H s       :     0.871754  s :     0.871754
  7 H s       :     0.870933  s :     0.870933


                      *****************************
                      * MAYER POPULATION ANALYSIS *
                      *****************************

  NA   - Mulliken gross atomic population
  ZA   - Total nuclear charge
  QA   - Mulliken gross atomic charge
  VA   - Mayer's total valence
  BVA  - Mayer's bonded valence
  FA   - Mayer's free valence

  ATOM       NA         ZA         QA         VA         BVA        FA
  0 C      5.8460     6.0000     0.1540     3.7612     3.7612    -0.0000
  1 O      8.3156     8.0000    -0.3156     2.0571     2.0571     0.0000
  2 C      6.1269     6.0000    -0.1269     3.7101     3.7101    -0.0000
  3 C      6.2823     6.0000    -0.2823     3.8792     3.8792    -0.0000
  4 H      0.8910     1.0000     0.1090     0.9292     0.9292    -0.0000
  5 H      0.8371     1.0000     0.1629     0.9491     0.9491    -0.0000
  6 H      0.8482     1.0000     0.1518     0.9523     0.9523     0.0000
  7 H      0.8530     1.0000     0.1470     0.9539     0.9539    -0.0000

  Mayer bond orders larger than 0.100000
B(  0-C ,  1-O ) :   1.9690 B(  0-C ,  2-C ) :   0.8958 B(  0-C ,  4-H ) :   0.8695 
B(  2-C ,  3-C ) :   1.9414 B(  2-C ,  5-H ) :   0.9227 B(  3-C ,  6-H ) :   0.9501 
B(  3-C ,  7-H ) :   0.9496 

-------
TIMINGS
-------

Total SCF time: 0 days 0 hours 0 min 33 sec 

Total time                  ....      33.999 sec
Sum of individual times     ....      30.159 sec  ( 88.7%)

Fock matrix formation       ....      28.840 sec  ( 84.8%)
  Split-RI-J                ....       0.622 sec  (  2.2% of F)
  Chain of spheres X        ....      12.016 sec  ( 41.7% of F)
  XC integration            ....       5.347 sec  ( 18.5% of F)
    Basis function eval.    ....       1.004 sec  ( 18.8% of XC)
    Density eval.           ....       0.387 sec  (  7.2% of XC)
    XC-Functional eval.     ....       1.486 sec  ( 27.8% of XC)
    XC-Potential eval.      ....       0.238 sec  (  4.5% of XC)
Diagonalization             ....       0.003 sec  (  0.0%)
Density matrix formation    ....       0.000 sec  (  0.0%)
Population analysis         ....       0.002 sec  (  0.0%)
Initial guess               ....       0.116 sec  (  0.3%)
Orbital Transformation      ....       0.000 sec  (  0.0%)
Orbital Orthonormalization  ....       0.000 sec  (  0.0%)
DIIS solution               ....       0.001 sec  (  0.0%)
SOSCF solution              ....       0.276 sec  (  0.8%)
Grid generation             ....       0.921 sec  (  2.7%)

Maximum memory used throughout the entire SCF-calculation: 46.8 MB
------------------------------------------------------------------------------
                        ORCA TD-DFT/TDA CALCULATION
------------------------------------------------------------------------------

Input orbitals are from        ... acrolien.871.gbw
CI-vector output               ... acrolien.871.cis
Tamm-Dancoff approximation     ... operative
CIS-Integral strategy          ... AO-integrals
Integral handling              ... AO integral Direct
Max. core memory used          ... 512 MB
Reference state                ... RHF
Generation of triplets         ... off
Follow IRoot                   ... off
Number of operators            ... 1
Orbital ranges used for CIS calculation:
 Operator 0:  Orbitals   4... 14  to  15... 43
XAS localization array:
 Operator 0:  Orbitals  -1... -1

-------------------
XC-INTEGRATION GRID
-------------------

General Integration Accuracy     IntAcc      ... 3.467
Radial Grid Type                 RadialGrid  ... OptM3 with GC (2021)
Angular Grid (max. ang.)         AngularGrid ... 1 (Lebedev-50)
Angular grid pruning method      GridPruning ... 4 (adaptive)
Weight generation scheme         WeightScheme... Becke
Basis function cutoff            BFCut       ... 1.0000e-11
Integration weight cutoff        WCut        ... 1.0000e-14
Angular grids for H and He will be reduced by one unit
Partially contracted basis set               ... off
Rotationally invariant grid construction     ... off

Total number of grid points                  ...     5504
Total number of batches                      ...       90
Average number of points per batch           ...       61
Average number of grid points per atom       ...      688

---------------------
COSX-INTEGRATION GRID
---------------------

General Integration Accuracy     IntAcc      ... 3.067
Radial Grid Type                 RadialGrid  ... OptM3 with GC (2021)
Angular Grid (max. ang.)         AngularGrid ... 1 (Lebedev-50)
Angular grid pruning method      GridPruning ... 4 (adaptive)
Weight generation scheme         WeightScheme... Becke
Basis function cutoff            BFCut       ... 1.0000e-11
Integration weight cutoff        WCut        ... 1.0000e-14
Angular grids for H and He will be reduced by one unit
Partially contracted basis set               ... on
Rotationally invariant grid construction     ... off

Total number of grid points                  ...     2513
Total number of batches                      ...       45
Average number of points per batch           ...       55
Average number of grid points per atom       ...      314

---------------
TD-DFT XC SETUP
---------------

DFT calculation                         ... on
Name of the grid file                   ... acrolien.871.grid_cis.tmp
Exchange functional (TD-DFT)            ... WB88
Correlation functional (TD-DFT)         ... LYP
 LDA part of GGA corr.  LDAOpt (TD-DFT) ... VWN-5
Hybrid DFT                              ... on
   Exchange mixing (TD-DFT)             ...  0.190
   GGA exch. scaling (TD-DFT)           ...  0.350
   GGA corr. scaling (TD-DFT)           ...  0.810
Range-Separated Exchange                ... on
   Range Range separation parameter mu  .... 0.330
   Max. amount of RS exchange (TD-DFT)  ...  0.460

Building densities             ... done
Calculating rho(r) on the grid ... done
Building xc-kernel on the grid ... done
                    *** TD-DFT CALCULATION INITIALIZED ***

------------------------
DAVIDSON-DIAGONALIZATION
------------------------

Dimension of the eigenvalue problem            ...    319
Number of roots to be determined               ...      1
Maximum size of the expansion space            ...     10
Maximum number of iterations                   ...    100
Convergence tolerance for the residual         ...    2.500e-07
Convergence tolerance for the energies         ...    2.500e-07
Orthogonality tolerance                        ...    1.000e-14
Level Shift                                    ...    0.000e+00
Constructing the preconditioner                ... o.k.
Building the initial guess                     ... o.k.
Number of trial vectors determined             ...     10


                       ****Iteration    0****

   Memory handling for direct AO based CIS:
   Memory per vector needed      ...     1 MB
   Memory needed                 ...     0 MB
   Memory available              ...   512 MB
   Number of vectors per batch   ...   512
   Number of batches             ...     1
   Time for densities:            0.000
   Time for RI-J (Direct):        0.045
   Time for K (COSX):             0.299
   Time for XC-Integration:       0.038
   Time for Sigma-Completion:     0.000
   Size of expansion space: 3
   Lowest Energy          :     0.160505275153
   Maximum Energy change  :     0.160505275153 (vector 0)
   Maximum residual norm  :     0.002252657350

                       ****Iteration    1****
   Time for densities:            0.000
   Time for RI-J (Direct):        0.038
   Time for K (COSX):             0.313
   Time for XC-Integration:       0.022
   Time for Sigma-Completion:     0.000
   Size of expansion space: 4
   Lowest Energy          :     0.154210294484
   Maximum Energy change  :     0.006294980669 (vector 0)
   Maximum residual norm  :     0.000366671834

                       ****Iteration    2****
   Time for densities:            0.000
   Time for RI-J (Direct):        0.033
   Time for K (COSX):             0.242
   Time for XC-Integration:       0.022
   Time for Sigma-Completion:     0.000
   Size of expansion space: 5
   Lowest Energy          :     0.153771404317
   Maximum Energy change  :     0.000438890167 (vector 0)
   Maximum residual norm  :     0.000053085402

                       ****Iteration    3****
   Time for densities:            0.000
   Time for RI-J (Direct):        0.033
   Time for K (COSX):             0.242
   Time for XC-Integration:       0.022
   Time for Sigma-Completion:     0.000
   Size of expansion space: 6
   Lowest Energy          :     0.153709218468
   Maximum Energy change  :     0.000062185849 (vector 0)
   Maximum residual norm  :     0.000006409049

                       ****Iteration    4****
   Time for densities:            0.000
   Time for RI-J (Direct):        0.034
   Time for K (COSX):             0.242
   Time for XC-Integration:       0.022
   Time for Sigma-Completion:     0.000
   Size of expansion space: 7
   Lowest Energy          :     0.153701051816
   Maximum Energy change  :     0.000008166653 (vector 0)
   Maximum residual norm  :     0.000000497194

                       ****Iteration    5****
   Time for densities:            0.000
   Time for RI-J (Direct):        0.034
   Time for K (COSX):             0.245
   Time for XC-Integration:       0.022
   Time for Sigma-Completion:     0.000
   Size of expansion space: 8
   Lowest Energy          :     0.153700410329
   Maximum Energy change  :     0.000000641487 (vector 0)
   Maximum residual norm  :     0.000000060559

      *** CONVERGENCE OF RESIDUAL NORM REACHED ***

Storing the converged CI vectors               ... acrolien.871.cis1

                 *** DAVIDSON DONE ***

Total time for solving the CIS problem:     2.037sec

------------------------------------
TD-DFT/TDA EXCITED STATES (SINGLETS)
------------------------------------

the weight of the individual excitations are printed if larger than 1.0e-02

STATE  1:  E=   0.153700 au      4.182 eV    33733.3 cm**-1 <S**2> =   0.000000
    14a ->  15a  :     0.968029 (c=  0.98388446)


-----------------------------
TD-DFT/TDA-EXCITATION SPECTRA
-----------------------------

Center of mass = ( -0.7816, -0.5728,  0.4333)
Calculating the Dipole integrals                  ... done
Transforming integrals                            ... done
Calculating the Linear Momentum integrals         ... done
Transforming integrals                            ... done
Calculating angular momentum integrals            ... done
Transforming integrals                            ... done

-----------------------------------------------------------------------------
         ABSORPTION SPECTRUM VIA TRANSITION ELECTRIC DIPOLE MOMENTS
-----------------------------------------------------------------------------
State   Energy    Wavelength  fosc         T2        TX        TY        TZ  
        (cm-1)      (nm)                 (au**2)    (au)      (au)      (au) 
-----------------------------------------------------------------------------
   1   33733.3    296.4   0.000062284   0.00061  -0.00345  -0.01234   0.02106

-----------------------------------------------------------------------------
         ABSORPTION SPECTRUM VIA TRANSITION VELOCITY DIPOLE MOMENTS
-----------------------------------------------------------------------------
State   Energy    Wavelength   fosc        P2         PX        PY        PZ  
        (cm-1)      (nm)                 (au**2)     (au)      (au)      (au) 
-----------------------------------------------------------------------------
   1   33733.3    296.4   0.000324832   0.00007  -0.00682   0.00482   0.00227

-------------------------------------------------------------------
                             CD SPECTRUM
-------------------------------------------------------------------
State  Energy     Wavelength     R         MX        MY        MZ   
       (cm-1)       (nm)     (1e40*cgs)   (au)      (au)      (au)  
-------------------------------------------------------------------
   1   33733.3    296.4     -5.81377   0.17073   0.38309  -0.33304

-------------------------------------------------------------------
         CD SPECTRUM VIA TRANSITION VELOCITY DIPOLE MOMENTS        
-------------------------------------------------------------------
State  Energy     Wavelength     R         MX        MY        MZ   
       (cm-1)       (nm)     (1e40*cgs)   (au)      (au)      (au)  
-------------------------------------------------------------------
   1   33733.3    296.4     -0.22056   0.17073   0.38309  -0.33304

Total run time:        2.596 sec

           *** ORCA-CIS/TD-DFT FINISHED WITHOUT ERROR ***

Maximum memory used throughout the entire CIS-calculation: 44.1 MB

-----------------------
CIS/TD-DFT TOTAL ENERGY
-----------------------

    E(SCF)  =   -191.711223555 Eh
    DE(CIS) =      0.153700410 Eh (Root  1)
    ----------------------------- ---------
    E(tot)  =   -191.557523144 Eh


-------------------------   --------------------
FINAL SINGLE POINT ENERGY      -191.557523144329
-------------------------   --------------------


                            ***************************************
                            *     ORCA property calculations      *
                            ***************************************

                                    ---------------------
                                    Active property flags
                                    ---------------------
   (+) Dipole Moment


------------------------------------------------------------------------------
                       ORCA ELECTRIC PROPERTIES CALCULATION
------------------------------------------------------------------------------

Dipole Moment Calculation                       ... on
Quadrupole Moment Calculation                   ... off
Polarizability Calculation                      ... off
GBWName                                         ... acrolien.871.gbw
Electron density                                ... acrolien.871.scfp
The origin for moment calculation is the CENTER OF MASS  = (-0.781628, -0.572794  0.433254)

-------------
DIPOLE MOMENT
-------------
                                X             Y             Z
Electronic contribution:     -2.50079      -1.37065       1.16039
Nuclear contribution   :      2.97773       2.11034      -1.70523
                        -----------------------------------------
Total Dipole Moment    :      0.47693       0.73969      -0.54485
                        -----------------------------------------
Magnitude (a.u.)       :      1.03512
Magnitude (Debye)      :      2.63106



--------------------
Rotational spectrum 
--------------------
 
Rotational constants in cm-1:     0.908260     0.175198     0.160528 
Rotational constants in MHz : 27228.938927  5252.303529  4812.501115 

 Dipole components along the rotational axes: 
x,y,z [a.u.] :    -0.853431    -0.504430     0.297783 
x,y,z [Debye]:    -2.169249    -1.282159     0.756904 

 

Timings for individual modules:

Sum of individual times         ...       36.991 sec (=   0.617 min)
GTO integral calculation        ...        0.348 sec (=   0.006 min)   0.9 %
SCF iterations                  ...       34.009 sec (=   0.567 min)  91.9 %
CIS module                      ...        2.634 sec (=   0.044 min)   7.1 %
                             ****ORCA TERMINATED NORMALLY****
TOTAL RUN TIME: 0 days 0 hours 0 minutes 37 seconds 241 msec
