
                                 *****************
                                 * O   R   C   A *
                                 *****************

                                            #,                                       
                                            ###                                      
                                            ####                                     
                                            #####                                    
                                            ######                                   
                                           ########,                                 
                                     ,,################,,,,,                         
                               ,,#################################,,                 
                          ,,##########################################,,             
                       ,#########################################, ''#####,          
                    ,#############################################,,   '####,        
                  ,##################################################,,,,####,       
                ,###########''''           ''''###############################       
              ,#####''   ,,,,##########,,,,          '''####'''          '####       
            ,##' ,,,,###########################,,,                        '##       
           ' ,,###''''                  '''############,,,                           
         ,,##''                                '''############,,,,        ,,,,,,###''
      ,#''                                            '''#######################'''  
     '                                                          ''''####''''         
             ,#######,   #######,   ,#######,      ##                                
            ,#'     '#,  ##    ##  ,#'     '#,    #''#        ######   ,####,        
            ##       ##  ##   ,#'  ##            #'  '#       #        #'  '#        
            ##       ##  #######   ##           ,######,      #####,   #    #        
            '#,     ,#'  ##    ##  '#,     ,#' ,#      #,         ##   #,  ,#        
             '#######'   ##     ##  '#######'  #'      '#     #####' # '####'        



                  #######################################################
                  #                        -***-                        #
                  #          Department of theory and spectroscopy      #
                  #    Directorship and core code : Frank Neese         #
                  #        Max Planck Institute fuer Kohlenforschung    #
                  #                Kaiser Wilhelm Platz 1               #
                  #                 D-45470 Muelheim/Ruhr               #
                  #                      Germany                        #
                  #                                                     #
                  #                  All rights reserved                #
                  #                        -***-                        #
                  #######################################################


                         Program Version 5.0.3 -  RELEASE  -


 With contributions from (in alphabetic order):
   Daniel Aravena         : Magnetic Suceptibility
   Michael Atanasov       : Ab Initio Ligand Field Theory (pilot matlab implementation)
   Alexander A. Auer      : GIAO ZORA, VPT2 properties, NMR spectrum
   Ute Becker             : Parallelization
   Giovanni Bistoni       : ED, misc. LED, open-shell LED, HFLD
   Martin Brehm           : Molecular dynamics
   Dmytro Bykov           : SCF Hessian
   Vijay G. Chilkuri      : MRCI spin determinant printing, contributions to CSF-ICE
   Dipayan Datta          : RHF DLPNO-CCSD density
   Achintya Kumar Dutta   : EOM-CC, STEOM-CC
   Dmitry Ganyushin       : Spin-Orbit,Spin-Spin,Magnetic field MRCI
   Miquel Garcia          : C-PCM and meta-GGA Hessian, CC/C-PCM, Gaussian charge scheme
   Yang Guo               : DLPNO-NEVPT2, F12-NEVPT2, CIM, IAO-localization
   Andreas Hansen         : Spin unrestricted coupled pair/coupled cluster methods
   Benjamin Helmich-Paris : MC-RPA, TRAH-SCF, COSX integrals
   Lee Huntington         : MR-EOM, pCC
   Robert Izsak           : Overlap fitted RIJCOSX, COSX-SCS-MP3, EOM
   Marcus Kettner         : VPT2
   Christian Kollmar      : KDIIS, OOCD, Brueckner-CCSD(T), CCSD density, CASPT2, CASPT2-K
   Simone Kossmann        : Meta GGA functionals, TD-DFT gradient, OOMP2, MP2 Hessian
   Martin Krupicka        : Initial AUTO-CI
   Lucas Lang             : DCDCAS
   Marvin Lechner         : AUTO-CI (C++ implementation), FIC-MRCC
   Dagmar Lenk            : GEPOL surface, SMD
   Dimitrios Liakos       : Extrapolation schemes; Compound Job, initial MDCI parallelization
   Dimitrios Manganas     : Further ROCIS development; embedding schemes
   Dimitrios Pantazis     : SARC Basis sets
   Anastasios Papadopoulos: AUTO-CI, single reference methods and gradients
   Taras Petrenko         : DFT Hessian,TD-DFT gradient, ASA, ECA, R-Raman, ABS, FL, XAS/XES, NRVS
   Peter Pinski           : DLPNO-MP2, DLPNO-MP2 Gradient
   Christoph Reimann      : Effective Core Potentials
   Marius Retegan         : Local ZFS, SOC
   Christoph Riplinger    : Optimizer, TS searches, QM/MM, DLPNO-CCSD(T), (RO)-DLPNO pert. Triples
   Tobias Risthaus        : Range-separated hybrids, TD-DFT gradient, RPA, STAB
   Michael Roemelt        : Original ROCIS implementation
   Masaaki Saitow         : Open-shell DLPNO-CCSD energy and density
   Barbara Sandhoefer     : DKH picture change effects
   Avijit Sen             : IP-ROCIS
   Kantharuban Sivalingam : CASSCF convergence, NEVPT2, FIC-MRCI
   Bernardo de Souza      : ESD, SOC TD-DFT
   Georgi Stoychev        : AutoAux, RI-MP2 NMR, DLPNO-MP2 response
   Willem Van den Heuvel  : Paramagnetic NMR
   Boris Wezisla          : Elementary symmetry handling
   Frank Wennmohs         : Technical directorship


 We gratefully acknowledge several colleagues who have allowed us to
 interface, adapt or use parts of their codes:
   Stefan Grimme, W. Hujo, H. Kruse, P. Pracht,  : VdW corrections, initial TS optimization,
                  C. Bannwarth, S. Ehlert          DFT functionals, gCP, sTDA/sTD-DF
   Ed Valeev, F. Pavosevic, A. Kumar             : LibInt (2-el integral package), F12 methods
   Garnet Chan, S. Sharma, J. Yang, R. Olivares  : DMRG
   Ulf Ekstrom                                   : XCFun DFT Library
   Mihaly Kallay                                 : mrcc  (arbitrary order and MRCC methods)
   Jiri Pittner, Ondrej Demel                    : Mk-CCSD
   Frank Weinhold                                : gennbo (NPA and NBO analysis)
   Christopher J. Cramer and Donald G. Truhlar   : smd solvation model
   Lars Goerigk                                  : TD-DFT with DH, B97 family of functionals
   V. Asgeirsson, H. Jonsson                     : NEB implementation
   FAccTs GmbH                                   : IRC, NEB, NEB-TS, DLPNO-Multilevel, CI-OPT
                                                   MM, QMMM, 2- and 3-layer-ONIOM, Crystal-QMMM,
                                                   LR-CPCM, SF, NACMEs, symmetry and pop. for TD-DFT,
                                                   nearIR, NL-DFT gradient (VV10), updates on ESD,
                                                   ML-optimized integration grids
   S Lehtola, MJT Oliveira, MAL Marques          : LibXC Library
   Liviu Ungur et al                             : ANISO software


 Your calculation uses the libint2 library for the computation of 2-el integrals
 For citations please refer to: http://libint.valeyev.net

 Your ORCA version has been built with support for libXC version: 5.1.0
 For citations please refer to: https://tddft.org/programs/libxc/

 This ORCA versions uses:
   CBLAS   interface :  Fast vector & matrix operations
   LAPACKE interface :  Fast linear algebra routines
   SCALAPACK package :  Parallel linear algebra routines
   Shared memory     :  Shared parallel matrices
   BLAS/LAPACK       :  OpenBLAS 0.3.15  USE64BITINT DYNAMIC_ARCH NO_AFFINITY Haswell SINGLE_THREADED
        Core in use  :  Haswell
   Copyright (c) 2011-2014, The OpenBLAS Project


XCFun DFT library Copyright 2009-2010 Ulf Ekstrom and contributors.
See http://admol.org/xcfun for more information.
This is free software; see the source code for copying conditions.
There is ABSOLUTELY NO WARRANTY; not even for MERCHANTABILITY or FITNESS FOR A PARTICULAR PURPOSE.
For details see the documentation.
Scientific users of this library should cite U. Ekstrom, L. Visscher, R. Bast, A. J. Thorvaldsen and K. Ruud;
J.Chem.Theor.Comp. 2010, DOI: 10.1021/ct100117s
XCFun Version 0.99 

================================================================================

----- Orbital basis set information -----
Your calculation utilizes the basis: 6-31G
   H-He, Li-Ne : W. J. Hehre, R. Ditchfield and J.A. Pople, J. Chem. Phys. 56, 2257 (1972).
                 Note: He and Ne are unpublished basis sets taken from the Gaussian program.
                 Note: Li and B from J. D. Dill and J. A. Pople, J. Chem. Phys. 62, 2921 (1975).
   Na - Ar     : M. M. Francl, W. J. Pietro, W. J. Hehre, J. S. Binkley, M. S. Gordon, 
                 D. J. DeFrees and J. A. Pople, J. Chem. Phys. 77, 3654 (1982).
   K - Zn      : V. A. Rassolov, J. A. Pople, M. A. Ratner, and T. L. Windus, J. Chem. Phys. 109, 1223 (1998).

----- AuxJ basis set information -----
Your calculation utilizes the auxiliary basis: def2/J
   F. Weigend, Phys. Chem. Chem. Phys. 8, 1057 (2006).

================================================================================
                                        WARNINGS
                       Please study these warnings very carefully!
================================================================================

INFO   : Checking CIS options ...

INFO   : the flag for use of the SHARK integral package has been found!

================================================================================
                                       INPUT FILE
================================================================================
NAME = acrolien.483.com
|  1> ! RKS CAM-B3LYP 6-31G
|  2> !TightSCF
|  3> %scf
|  4>  ConvForced true
|  5>  convergence tight
|  6>  MaxIter 500
|  7> end
|  8>  
|  9> %tddft 
| 10>  nroots 1
| 11> end
| 12> 
| 13> # 	23288
| 14> * xyz 0 1
| 15> 		C   -0.606698  -0.454461  -0.050404
| 16> 		O   -0.588887  -1.643058   0.018172
| 17> 		C    0.637328   0.443367   0.033216
| 18> 		C    1.870314  -0.106512   0.013090
| 19> 		H   -1.556482   0.054409   0.069134
| 20> 		H    0.490006   1.494763  -0.058218
| 21> 		H    2.041723  -1.314831  -0.176934
| 22> 		H    2.695120   0.494857  -0.078218
| 23> *
| 24> 
| 25>                          ****END OF INPUT****
================================================================================

                       ****************************
                       * Single Point Calculation *
                       ****************************

---------------------------------
CARTESIAN COORDINATES (ANGSTROEM)
---------------------------------
  C     -0.606698   -0.454461   -0.050404
  O     -0.588887   -1.643058    0.018172
  C      0.637328    0.443367    0.033216
  C      1.870314   -0.106512    0.013090
  H     -1.556482    0.054409    0.069134
  H      0.490006    1.494763   -0.058218
  H      2.041723   -1.314831   -0.176934
  H      2.695120    0.494857   -0.078218

----------------------------
CARTESIAN COORDINATES (A.U.)
----------------------------
  NO LB      ZA    FRAG     MASS         X           Y           Z
   0 C     6.0000    0    12.011   -1.146493   -0.858807   -0.095250
   1 O     8.0000    0    15.999   -1.112835   -3.104930    0.034340
   2 C     6.0000    0    12.011    1.204375    0.837842    0.062769
   3 C     6.0000    0    12.011    3.534381   -0.201279    0.024737
   4 H     1.0000    0     1.008   -2.941325    0.102818    0.130644
   5 H     1.0000    0     1.008    0.925977    2.824693   -0.110016
   6 H     1.0000    0     1.008    3.858297   -2.484671   -0.334357
   7 H     1.0000    0     1.008    5.093039    0.935144   -0.147811

--------------------------------
INTERNAL COORDINATES (ANGSTROEM)
--------------------------------
 C      0   0   0     0.000000000000     0.00000000     0.00000000
 O      1   0   0     1.190706818619     0.00000000     0.00000000
 C      1   2   0     1.536453094195   124.61573941     0.00000000
 C      3   1   2     1.350194966186   120.03927672     8.97814602
 H      1   2   3     1.084125295803   118.37926070   195.10348357
 H      3   1   2     1.065597248897   117.38411891   179.00176922
 H      4   3   1     1.235121440028   121.83308296     5.79567939
 H      4   3   1     1.024834992894   119.82173342   170.49707535

---------------------------
INTERNAL COORDINATES (A.U.)
---------------------------
 C      0   0   0     0.000000000000     0.00000000     0.00000000
 O      1   0   0     2.250109792983     0.00000000     0.00000000
 C      1   2   0     2.903475565644   124.61573941     0.00000000
 C      3   1   2     2.551498713490   120.03927672     8.97814602
 H      1   2   3     2.048699903924   118.37926070   195.10348357
 H      3   1   2     2.013686969474   117.38411891   179.00176922
 H      4   3   1     2.334041263788   121.83308296     5.79567939
 H      4   3   1     1.936657469030   119.82173342   170.49707535

---------------------
BASIS SET INFORMATION
---------------------
There are 3 groups of distinct atoms

 Group   1 Type C   : 10s4p contracted to 3s2p pattern {631/31}
 Group   2 Type O   : 10s4p contracted to 3s2p pattern {631/31}
 Group   3 Type H   : 4s contracted to 2s pattern {31}

Atom   0C    basis set group =>   1
Atom   1O    basis set group =>   2
Atom   2C    basis set group =>   1
Atom   3C    basis set group =>   1
Atom   4H    basis set group =>   3
Atom   5H    basis set group =>   3
Atom   6H    basis set group =>   3
Atom   7H    basis set group =>   3
---------------------------------
AUXILIARY/J BASIS SET INFORMATION
---------------------------------
There are 3 groups of distinct atoms

 Group   1 Type C   : 12s5p4d2f1g contracted to 6s4p3d1f1g pattern {711111/2111/211/2/1}
 Group   2 Type O   : 12s5p4d2f1g contracted to 6s4p3d1f1g pattern {711111/2111/211/2/1}
 Group   3 Type H   : 5s2p1d contracted to 3s1p1d pattern {311/2/1}

Atom   0C    basis set group =>   1
Atom   1O    basis set group =>   2
Atom   2C    basis set group =>   1
Atom   3C    basis set group =>   1
Atom   4H    basis set group =>   3
Atom   5H    basis set group =>   3
Atom   6H    basis set group =>   3
Atom   7H    basis set group =>   3
------------------------------------------------------------------------------
                           ORCA GTO INTEGRAL CALCULATION
                           -- RI-GTO INTEGRALS CHOSEN --
------------------------------------------------------------------------------
------------------------------------------------------------------------------
                   ___                                                        
                  /   \      - P O W E R E D   B Y -                         
                 /     \                                                     
                 |  |  |   _    _      __       _____    __    __             
                 |  |  |  | |  | |    /  \     |  _  \  |  |  /  |          
                  \  \/   | |  | |   /    \    | | | |  |  | /  /          
                 / \  \   | |__| |  /  /\  \   | |_| |  |  |/  /          
                |  |  |   |  __  | /  /__\  \  |    /   |      \           
                |  |  |   | |  | | |   __   |  |    \   |  |\   \          
                \     /   | |  | | |  |  |  |  | |\  \  |  | \   \       
                 \___/    |_|  |_| |__|  |__|  |_| \__\ |__|  \__/        
                                                                              
                      - O R C A' S   B I G   F R I E N D -                    
                                      &                                       
                       - I N T E G R A L  F E E D E R -                       
                                                                              
 v1 FN, 2020, v2 2021                                                         
------------------------------------------------------------------------------


Reading SHARK input file acrolien.483.SHARKINP.tmp ... ok
----------------------
SHARK INTEGRAL PACKAGE
----------------------

Number of atoms                             ...      8
Number of basis functions                   ...     44
Number of shells                            ...     28
Maximum angular momentum                    ...      1
Integral batch strategy                     ... SHARK/LIBINT Hybrid
RI-J (if used) integral strategy            ... SPLIT-RIJ (Revised 2003 algorithm where possible)
Printlevel                                  ...      1
Contraction scheme used                     ... SEGMENTED contraction
Coulomb Range Separation                    ... NOT USED
Exchange Range Separation                   ... Long Range
   Mu parameter                             ...  0.330000
   Scaling (regular/separated)              ...  0.190000  0.460000
Finite Nucleus Model                        ... NOT USED
Auxiliary Coulomb fitting basis             ... AVAILABLE
   # of basis functions in Aux-J            ...    240
   # of shells in Aux-J                     ...     80
   Maximum angular momentum in Aux-J        ...      4
Auxiliary J/K fitting basis                 ... NOT available
Auxiliary Correlation fitting basis         ... NOT available
Auxiliary 'external' fitting basis          ... NOT available
Integral threshold                          ...     2.500000e-11
Primitive cut-off                           ...     2.500000e-12
Primitive pair pre-selection threshold      ...     2.500000e-12

Calculating pre-screening integrals         ... done (  0.0 sec) Dimension = 28
Organizing shell pair data                  ... done (  0.0 sec)
Shell pair information
Total number of shell pairs                 ...       406
Shell pairs after pre-screening             ...       402
Total number of primitive shell pairs       ...      2724
Primitive shell pairs kept                  ...      2012
          la=0 lb=0:    206 shell pairs
          la=1 lb=0:    160 shell pairs
          la=1 lb=1:     36 shell pairs

Calculating one electron integrals          ... done (  0.0 sec)
Calculating RI/J V-Matrix + Cholesky decomp.... done (  0.0 sec)
Calculating Nuclear repulsion               ... done (  0.0 sec) ENN=    103.809581856211 Eh

SHARK setup successfully completed in   0.3 seconds

Maximum memory used throughout the entire GTOINT-calculation: 8.3 MB
-------------------------------------------------------------------------------
                                 ORCA SCF
-------------------------------------------------------------------------------

------------
SCF SETTINGS
------------
Hamiltonian:
 Density Functional     Method          .... DFT(GTOs)
 Exchange Functional    Exchange        .... WB88
 Correlation Functional Correlation     .... LYP
 LDA part of GGA corr.  LDAOpt          .... VWN-5
 Gradients option       PostSCFGGA      .... off
 Hybrid DFT is turned on
   Fraction HF Exchange ScalHFX         ....  0.190000
   Scaling of DF-GGA-X  ScalDFX         ....  0.350000
   Scaling of DF-GGA-C  ScalDFC         ....  0.810000
   Scaling of DF-LDA-C  ScalLDAC        ....  1.000000
   Perturbative correction              ....  0.000000
   Density functional embedding theory  .... OFF
 Long-range corrected/Screened/Range-Separated Hybrid DFT is turned on
   Amount of maximum screened exact exchange              ....  0.460000
   Range separation parameter mu (erf(mu*r12)/r12)        ....  0.330000
 RI-approximation to the Coulomb term is turned on
   Number of AuxJ basis functions       .... 240
   RIJ-COSX (HFX calculated with COS-X)).... on


General Settings:
 Integral files         IntName         .... acrolien.483
 Hartree-Fock type      HFTyp           .... RHF
 Total Charge           Charge          ....    0
 Multiplicity           Mult            ....    1
 Number of Electrons    NEL             ....   30
 Basis Dimension        Dim             ....   44
 Nuclear Repulsion      ENuc            ....    103.8095818562 Eh

Convergence Acceleration:
 DIIS                   CNVDIIS         .... on
   Start iteration      DIISMaxIt       ....    12
   Startup error        DIISStart       ....  0.200000
   # of expansion vecs  DIISMaxEq       ....     5
   Bias factor          DIISBfac        ....   1.050
   Max. coefficient     DIISMaxC        ....  10.000
 Trust-Rad. Augm. Hess. CNVTRAH         .... auto
   Auto Start mean grad. ratio tolernc. ....  1.125000
   Auto Start start iteration           ....    20
   Auto Start num. interpolation iter.  ....    10
   Max. Number of Micro iterations      ....    16
   Max. Number of Macro iterations      .... Maxiter - #DIIS iter
   Number of Davidson start vectors     ....     2
   Converg. threshold I  (grad. norm)   ....   1.000e-05
   Converg. threshold II (energy diff.) ....   1.000e-08
   Grad. Scal. Fac. for Micro threshold ....   0.100
   Minimum threshold for Micro iter.    ....   0.010
   NR start threshold (gradient norm)   ....   0.001
   Initial trust radius                 ....   0.400
   Minimum AH scaling param. (alpha)    ....   1.000
   Maximum AH scaling param. (alpha)    .... 1000.000
   Orbital update algorithm             .... Taylor
   White noise on init. David. guess    .... on
   Maximum white noise                  ....   0.010
   Quad. conv. algorithm                .... NR
 SOSCF                  CNVSOSCF        .... on
   Start iteration      SOSCFMaxIt      ....   150
   Startup grad/error   SOSCFStart      ....  0.003300
 Level Shifting         CNVShift        .... on
   Level shift para.    LevelShift      ....    0.2500
   Turn off err/grad.   ShiftErr        ....    0.0010
 Zerner damping         CNVZerner       .... off
 Static damping         CNVDamp         .... on
   Fraction old density DampFac         ....    0.7000
   Max. Damping (<1)    DampMax         ....    0.9800
   Min. Damping (>=0)   DampMin         ....    0.0000
   Turn off err/grad.   DampErr         ....    0.1000
 Fernandez-Rico         CNVRico         .... off

SCF Procedure:
 Maximum # iterations   MaxIter         ....   500
 SCF integral mode      SCFMode         .... Direct
   Integral package                     .... SHARK and LIBINT hybrid scheme
 Reset frequency        DirectResetFreq ....    20
 Integral Threshold     Thresh          ....  2.500e-11 Eh
 Primitive CutOff       TCut            ....  2.500e-12 Eh

Convergence Tolerance:
 Convergence Check Mode ConvCheckMode   .... Total+1el-Energy
 Convergence forced     ConvForced      .... 1
 Energy Change          TolE            ....  1.000e-08 Eh
 1-El. energy change                    ....  1.000e-05 Eh
 Orbital Gradient       TolG            ....  1.000e-05
 Orbital Rotation angle TolX            ....  1.000e-05
 DIIS Error             TolErr          ....  5.000e-07


Diagonalization of the overlap matrix:
Smallest eigenvalue                        ... 5.882e-03
Time for diagonalization                   ...    0.001 sec
Threshold for overlap eigenvalues          ... 1.000e-08
Number of eigenvalues below threshold      ... 0
Time for construction of square roots      ...    0.019 sec
Total time needed                          ...    0.020 sec

Time for model grid setup =    0.058 sec

------------------------------
INITIAL GUESS: MODEL POTENTIAL
------------------------------
Loading Hartree-Fock densities                     ... done
Calculating cut-offs                               ... done
Initializing the effective Hamiltonian             ... done
Setting up the integral package (SHARK)            ... done
Starting the Coulomb interaction                   ... done (   0.2 sec)
Reading the grid                                   ... done
Mapping shells                                     ... done
Starting the XC term evaluation                    ... done (   0.0 sec)
  promolecular density results
     # of electrons  =     30.000083710
     EX              =    -24.591226115
     EC              =     -0.963507892
     EX+EC           =    -25.554734006
Transforming the Hamiltonian                       ... done (   0.0 sec)
Diagonalizing the Hamiltonian                      ... done (   0.0 sec)
Back transforming the eigenvectors                 ... done (   0.0 sec)
Now organizing SCF variables                       ... done
                      ------------------
                      INITIAL GUESS DONE (   0.3 sec)
                      ------------------
-------------------
DFT GRID GENERATION
-------------------

General Integration Accuracy     IntAcc      ... 4.388
Radial Grid Type                 RadialGrid  ... OptM3 with GC (2021)
Angular Grid (max. ang.)         AngularGrid ... 4 (Lebedev-302)
Angular grid pruning method      GridPruning ... 4 (adaptive)
Weight generation scheme         WeightScheme... Becke
Basis function cutoff            BFCut       ... 1.0000e-11
Integration weight cutoff        WCut        ... 1.0000e-14
Angular grids for H and He will be reduced by one unit
Partially contracted basis set               ... off
Rotationally invariant grid construction     ... off

Total number of grid points                  ...    37379
Total number of batches                      ...      588
Average number of points per batch           ...       63
Average number of grid points per atom       ...     4672
Time for grid setup =    0.324 sec

--------------------
COSX GRID GENERATION
--------------------

GRIDX 1
-------
General Integration Accuracy     IntAcc      ... 3.816
Radial Grid Type                 RadialGrid  ... OptM3 with GC (2021)
Angular Grid (max. ang.)         AngularGrid ... 1 (Lebedev-50)
Angular grid pruning method      GridPruning ... 4 (adaptive)
Weight generation scheme         WeightScheme... Becke
Basis function cutoff            BFCut       ... 1.0000e-11
Integration weight cutoff        WCut        ... 1.0000e-14
Angular grids for H and He will be reduced by one unit
Partially contracted basis set               ... on
Rotationally invariant grid construction     ... off

Total number of grid points                  ...     4803
Total number of batches                      ...       79
Average number of points per batch           ...       60
Average number of grid points per atom       ...      600
UseSFitting                                  ... on

GRIDX 2
-------
General Integration Accuracy     IntAcc      ... 4.020
Radial Grid Type                 RadialGrid  ... OptM3 with GC (2021)
Angular Grid (max. ang.)         AngularGrid ... 2 (Lebedev-110)
Angular grid pruning method      GridPruning ... 4 (adaptive)
Weight generation scheme         WeightScheme... Becke
Basis function cutoff            BFCut       ... 1.0000e-11
Integration weight cutoff        WCut        ... 1.0000e-14
Angular grids for H and He will be reduced by one unit
Partially contracted basis set               ... on
Rotationally invariant grid construction     ... off

Total number of grid points                  ...    10564
Total number of batches                      ...      169
Average number of points per batch           ...       62
Average number of grid points per atom       ...     1320
UseSFitting                                  ... on

GRIDX 3
-------
General Integration Accuracy     IntAcc      ... 4.338
Radial Grid Type                 RadialGrid  ... OptM3 with GC (2021)
Angular Grid (max. ang.)         AngularGrid ... 3 (Lebedev-194)
Angular grid pruning method      GridPruning ... 4 (adaptive)
Weight generation scheme         WeightScheme... Becke
Basis function cutoff            BFCut       ... 1.0000e-11
Integration weight cutoff        WCut        ... 1.0000e-14
Angular grids for H and He will be reduced by one unit
Partially contracted basis set               ... on
Rotationally invariant grid construction     ... off

Total number of grid points                  ...    23270
Total number of batches                      ...      366
Average number of points per batch           ...       63
Average number of grid points per atom       ...     2909
UseSFitting                                  ... on

Time for X-Grid setup             =    0.689 sec

--------------
SCF ITERATIONS
--------------
ITER       Energy         Delta-E        Max-DP      RMS-DP      [F,P]     Damp
               ***  Starting incremental Fock matrix formation  ***
  0   -191.6220520242   0.000000000000 0.08099328  0.00582779  0.2375196 0.7000
  1   -191.6695253289  -0.047473304733 0.05075989  0.00386149  0.1070350 0.7000
                               ***Turning on DIIS***
  2   -191.6887663146  -0.019240985705 0.06878577  0.00619674  0.0338631 0.0000
  3   -191.7216810761  -0.032914761491 0.03302041  0.00271906  0.0547543 0.0000
  4   -191.7269056045  -0.005224528413 0.00679332  0.00067294  0.0120871 0.0000
                      *** Initiating the SOSCF procedure ***
                           *** Shutting down DIIS ***
                      *** Re-Reading the Fockian *** 
                      *** Removing any level shift *** 
ITER      Energy       Delta-E        Grad      Rot      Max-DP    RMS-DP
  5   -191.72727909  -0.0003734850  0.000833  0.000833  0.003590  0.000256
               *** Restarting incremental Fock matrix formation ***
  6   -191.72731939  -0.0000403030  0.000529  0.001604  0.002486  0.000170
  7   -191.72732532  -0.0000059264  0.000189  0.000768  0.001920  0.000121
  8   -191.72732610  -0.0000007840  0.000084  0.000136  0.000357  0.000026
  9   -191.72732629  -0.0000001843  0.000029  0.000046  0.000165  0.000011
 10   -191.72732628   0.0000000043  0.000034  0.000027  0.000095  0.000006
 11   -191.72732630  -0.0000000138  0.000004  0.000013  0.000014  0.000001
 12   -191.72732630   0.0000000003  0.000004  0.000007  0.000007  0.000000
                  ***Gradient check signals convergence***
              ***Rediagonalizing the Fockian in SOSCF/NRSCF***

               *****************************************************
               *                     SUCCESS                       *
               *           SCF CONVERGED AFTER  13 CYCLES          *
               *****************************************************

Old exchange energy                            =     -7.110045354 Eh
New exchange energy                            =     -7.110052029 Eh
Exchange energy change after final integration =     -0.000006675 Eh
Total energy after final integration           =   -191.727332971 Eh
Final COS-X integration done in                =     2.041 sec

----------------
TOTAL SCF ENERGY
----------------

Total Energy       :         -191.72733297 Eh           -5217.16597 eV

Components:
Nuclear Repulsion  :          103.80958186 Eh            2824.80233 eV
Electronic Energy  :         -295.53691483 Eh           -8041.96830 eV
One Electron Energy:         -464.59803417 Eh          -12642.35523 eV
Two Electron Energy:          169.06111935 Eh            4600.38694 eV
Max COSX asymmetry :            0.00000105 Eh               0.00003 eV

Virial components:
Potential Energy   :         -382.45655809 Eh          -10407.17204 eV
Kinetic Energy     :          190.72922512 Eh            5190.00607 eV
Virial Ratio       :            2.00523311


DFT components:
N(Alpha)           :       15.000004308391 electrons
N(Beta)            :       15.000004308391 electrons
N(Total)           :       30.000008616783 electrons
E(XC)              :      -19.057092186945 Eh       
DFET-embed. en.    :        0.000000000000 Eh       

---------------
SCF CONVERGENCE
---------------

  Last Energy change         ...    4.0151e-10  Tolerance :   1.0000e-08
  Last MAX-Density change    ...    3.5527e-15  Tolerance :   1.0000e-07
  Last RMS-Density change    ...    1.3240e-16  Tolerance :   5.0000e-09
  Last Orbital Gradient      ...    4.9905e-07  Tolerance :   1.0000e-05
  Last Orbital Rotation      ...    1.5711e-06  Tolerance :   1.0000e-05

             **** THE GBW FILE WAS UPDATED (acrolien.483.gbw) ****
             **** DENSITY acrolien.483.scfp WAS UPDATED ****
             **** ENERGY FILE WAS UPDATED (acrolien.483.en.tmp) ****
             **** THE GBW FILE WAS UPDATED (acrolien.483.gbw) ****
             **** DENSITY acrolien.483.scfp WAS UPDATED ****
----------------
ORBITAL ENERGIES
----------------

  NO   OCC          E(Eh)            E(eV) 
   0   2.0000     -19.227006      -523.1934 
   1   2.0000     -10.356434      -281.8129 
   2   2.0000     -10.288552      -279.9657 
   3   2.0000     -10.279704      -279.7250 
   4   2.0000      -1.166316       -31.7371 
   5   2.0000      -0.872063       -23.7300 
   6   2.0000      -0.729668       -19.8553 
   7   2.0000      -0.624818       -17.0022 
   8   2.0000      -0.583853       -15.8875 
   9   2.0000      -0.512236       -13.9387 
  10   2.0000      -0.502633       -13.6773 
  11   2.0000      -0.477292       -12.9878 
  12   2.0000      -0.441118       -12.0034 
  13   2.0000      -0.344633        -9.3779 
  14   2.0000      -0.320420        -8.7191 
  15   0.0000      -0.014715        -0.4004 
  16   0.0000       0.108544         2.9536 
  17   0.0000       0.151533         4.1234 
  18   0.0000       0.168513         4.5855 
  19   0.0000       0.208710         5.6793 
  20   0.0000       0.238542         6.4910 
  21   0.0000       0.310942         8.4611 
  22   0.0000       0.365207         9.9378 
  23   0.0000       0.375179        10.2091 
  24   0.0000       0.570568        15.5259 
  25   0.0000       0.588336        16.0094 
  26   0.0000       0.638058        17.3624 
  27   0.0000       0.664550        18.0833 
  28   0.0000       0.692348        18.8398 
  29   0.0000       0.711635        19.3646 
  30   0.0000       0.766569        20.8594 
  31   0.0000       0.800889        21.7933 
  32   0.0000       0.859210        23.3803 
  33   0.0000       0.892530        24.2870 
  34   0.0000       0.964043        26.2329 
  35   0.0000       1.008615        27.4458 
  36   0.0000       1.029034        28.0014 
  37   0.0000       1.037320        28.2269 
  38   0.0000       1.060760        28.8647 
  39   0.0000       1.169881        31.8341 
  40   0.0000       1.205823        32.8121 
  41   0.0000       1.219117        33.1739 
  42   0.0000       1.324055        36.0294 
  43   0.0000       1.830862        49.8203 

                    ********************************
                    * MULLIKEN POPULATION ANALYSIS *
                    ********************************

-----------------------
MULLIKEN ATOMIC CHARGES
-----------------------
   0 C :    0.178398
   1 O :   -0.346884
   2 C :   -0.141518
   3 C :   -0.249689
   4 H :    0.108916
   5 H :    0.141504
   6 H :    0.169512
   7 H :    0.139760
Sum of atomic charges:   -0.0000000

--------------------------------
MULLIKEN REDUCED ORBITAL CHARGES
--------------------------------
  0 C s       :     3.179930  s :     3.179930
      pz      :     0.789360  p :     2.641672
      px      :     1.041727
      py      :     0.810585
  1 O s       :     3.915236  s :     3.915236
      pz      :     1.275458  p :     4.431648
      px      :     1.816565
      py      :     1.339625
  2 C s       :     3.215256  s :     3.215256
      pz      :     1.026361  p :     2.926262
      px      :     0.918907
      py      :     0.980994
  3 C s       :     3.288772  s :     3.288772
      pz      :     0.904084  p :     2.960917
      px      :     1.002731
      py      :     1.054102
  4 H s       :     0.891084  s :     0.891084
  5 H s       :     0.858496  s :     0.858496
  6 H s       :     0.830488  s :     0.830488
  7 H s       :     0.860240  s :     0.860240


                     *******************************
                     * LOEWDIN POPULATION ANALYSIS *
                     *******************************

----------------------
LOEWDIN ATOMIC CHARGES
----------------------
   0 C :    0.114806
   1 O :   -0.218647
   2 C :   -0.192069
   3 C :   -0.164876
   4 H :    0.076501
   5 H :    0.123839
   6 H :    0.140668
   7 H :    0.119778

-------------------------------
LOEWDIN REDUCED ORBITAL CHARGES
-------------------------------
  0 C s       :     2.976105  s :     2.976105
      pz      :     0.791740  p :     2.909089
      px      :     1.088797
      py      :     1.028552
  1 O s       :     3.611853  s :     3.611853
      pz      :     1.276222  p :     4.606794
      px      :     1.859685
      py      :     1.470886
  2 C s       :     2.985619  s :     2.985619
      pz      :     1.017905  p :     3.206450
      px      :     1.092040
      py      :     1.096505
  3 C s       :     3.016416  s :     3.016416
      pz      :     0.910566  p :     3.148460
      px      :     1.115252
      py      :     1.122642
  4 H s       :     0.923499  s :     0.923499
  5 H s       :     0.876161  s :     0.876161
  6 H s       :     0.859332  s :     0.859332
  7 H s       :     0.880222  s :     0.880222


                      *****************************
                      * MAYER POPULATION ANALYSIS *
                      *****************************

  NA   - Mulliken gross atomic population
  ZA   - Total nuclear charge
  QA   - Mulliken gross atomic charge
  VA   - Mayer's total valence
  BVA  - Mayer's bonded valence
  FA   - Mayer's free valence

  ATOM       NA         ZA         QA         VA         BVA        FA
  0 C      5.8216     6.0000     0.1784     3.7786     3.7786    -0.0000
  1 O      8.3469     8.0000    -0.3469     2.0473     2.0473    -0.0000
  2 C      6.1415     6.0000    -0.1415     3.7607     3.7607    -0.0000
  3 C      6.2497     6.0000    -0.2497     3.8535     3.8535    -0.0000
  4 H      0.8911     1.0000     0.1089     0.9283     0.9283    -0.0000
  5 H      0.8585     1.0000     0.1415     0.9422     0.9422    -0.0000
  6 H      0.8305     1.0000     0.1695     0.9530     0.9530    -0.0000
  7 H      0.8602     1.0000     0.1398     0.9426     0.9426    -0.0000

  Mayer bond orders larger than 0.100000
B(  0-C ,  1-O ) :   1.9144 B(  0-C ,  2-C ) :   0.9464 B(  0-C ,  4-H ) :   0.8924 
B(  2-C ,  3-C ) :   1.8903 B(  2-C ,  5-H ) :   0.9375 B(  3-C ,  6-H ) :   0.9387 
B(  3-C ,  7-H ) :   0.9441 

-------
TIMINGS
-------

Total SCF time: 0 days 0 hours 0 min 31 sec 

Total time                  ....      31.683 sec
Sum of individual times     ....      26.407 sec  ( 83.3%)

Fock matrix formation       ....      24.178 sec  ( 76.3%)
  Split-RI-J                ....       0.611 sec  (  2.5% of F)
  Chain of spheres X        ....      11.757 sec  ( 48.6% of F)
  XC integration            ....       5.008 sec  ( 20.7% of F)
    Basis function eval.    ....       0.993 sec  ( 19.8% of XC)
    Density eval.           ....       0.398 sec  (  8.0% of XC)
    XC-Functional eval.     ....       1.473 sec  ( 29.4% of XC)
    XC-Potential eval.      ....       0.237 sec  (  4.7% of XC)
Diagonalization             ....       0.003 sec  (  0.0%)
Density matrix formation    ....       0.000 sec  (  0.0%)
Population analysis         ....       0.768 sec  (  2.4%)
Initial guess               ....       0.288 sec  (  0.9%)
Orbital Transformation      ....       0.000 sec  (  0.0%)
Orbital Orthonormalization  ....       0.000 sec  (  0.0%)
DIIS solution               ....       0.001 sec  (  0.0%)
SOSCF solution              ....       0.097 sec  (  0.3%)
Grid generation             ....       1.071 sec  (  3.4%)

Maximum memory used throughout the entire SCF-calculation: 46.8 MB
------------------------------------------------------------------------------
                        ORCA TD-DFT/TDA CALCULATION
------------------------------------------------------------------------------

Input orbitals are from        ... acrolien.483.gbw
CI-vector output               ... acrolien.483.cis
Tamm-Dancoff approximation     ... operative
CIS-Integral strategy          ... AO-integrals
Integral handling              ... AO integral Direct
Max. core memory used          ... 512 MB
Reference state                ... RHF
Generation of triplets         ... off
Follow IRoot                   ... off
Number of operators            ... 1
Orbital ranges used for CIS calculation:
 Operator 0:  Orbitals   4... 14  to  15... 43
XAS localization array:
 Operator 0:  Orbitals  -1... -1

-------------------
XC-INTEGRATION GRID
-------------------

General Integration Accuracy     IntAcc      ... 3.467
Radial Grid Type                 RadialGrid  ... OptM3 with GC (2021)
Angular Grid (max. ang.)         AngularGrid ... 1 (Lebedev-50)
Angular grid pruning method      GridPruning ... 4 (adaptive)
Weight generation scheme         WeightScheme... Becke
Basis function cutoff            BFCut       ... 1.0000e-11
Integration weight cutoff        WCut        ... 1.0000e-14
Angular grids for H and He will be reduced by one unit
Partially contracted basis set               ... off
Rotationally invariant grid construction     ... off

Total number of grid points                  ...     5491
Total number of batches                      ...       91
Average number of points per batch           ...       60
Average number of grid points per atom       ...      686

---------------------
COSX-INTEGRATION GRID
---------------------

General Integration Accuracy     IntAcc      ... 3.067
Radial Grid Type                 RadialGrid  ... OptM3 with GC (2021)
Angular Grid (max. ang.)         AngularGrid ... 1 (Lebedev-50)
Angular grid pruning method      GridPruning ... 4 (adaptive)
Weight generation scheme         WeightScheme... Becke
Basis function cutoff            BFCut       ... 1.0000e-11
Integration weight cutoff        WCut        ... 1.0000e-14
Angular grids for H and He will be reduced by one unit
Partially contracted basis set               ... on
Rotationally invariant grid construction     ... off

Total number of grid points                  ...     2509
Total number of batches                      ...       45
Average number of points per batch           ...       55
Average number of grid points per atom       ...      314

---------------
TD-DFT XC SETUP
---------------

DFT calculation                         ... on
Name of the grid file                   ... acrolien.483.grid_cis.tmp
Exchange functional (TD-DFT)            ... WB88
Correlation functional (TD-DFT)         ... LYP
 LDA part of GGA corr.  LDAOpt (TD-DFT) ... VWN-5
Hybrid DFT                              ... on
   Exchange mixing (TD-DFT)             ...  0.190
   GGA exch. scaling (TD-DFT)           ...  0.350
   GGA corr. scaling (TD-DFT)           ...  0.810
Range-Separated Exchange                ... on
   Range Range separation parameter mu  .... 0.330
   Max. amount of RS exchange (TD-DFT)  ...  0.460

Building densities             ... done
Calculating rho(r) on the grid ... done
Building xc-kernel on the grid ... done
                    *** TD-DFT CALCULATION INITIALIZED ***

------------------------
DAVIDSON-DIAGONALIZATION
------------------------

Dimension of the eigenvalue problem            ...    319
Number of roots to be determined               ...      1
Maximum size of the expansion space            ...     10
Maximum number of iterations                   ...    100
Convergence tolerance for the residual         ...    2.500e-07
Convergence tolerance for the energies         ...    2.500e-07
Orthogonality tolerance                        ...    1.000e-14
Level Shift                                    ...    0.000e+00
Constructing the preconditioner                ... o.k.
Building the initial guess                     ... o.k.
Number of trial vectors determined             ...     10


                       ****Iteration    0****

   Memory handling for direct AO based CIS:
   Memory per vector needed      ...     1 MB
   Memory needed                 ...     0 MB
   Memory available              ...   512 MB
   Number of vectors per batch   ...   512
   Number of batches             ...     1
   Time for densities:            0.000
   Time for RI-J (Direct):        0.044
   Time for K (COSX):             0.592
   Time for XC-Integration:       0.038
   Time for Sigma-Completion:     0.000
   Size of expansion space: 3
   Lowest Energy          :     0.145409634579
   Maximum Energy change  :     0.145409634579 (vector 0)
   Maximum residual norm  :     0.002088451659

                       ****Iteration    1****
   Time for densities:            0.000
   Time for RI-J (Direct):        0.034
   Time for K (COSX):             0.414
   Time for XC-Integration:       0.022
   Time for Sigma-Completion:     0.000
   Size of expansion space: 4
   Lowest Energy          :     0.136523889343
   Maximum Energy change  :     0.008885745236 (vector 0)
   Maximum residual norm  :     0.000501161726

                       ****Iteration    2****
   Time for densities:            0.000
   Time for RI-J (Direct):        0.034
   Time for K (COSX):             0.367
   Time for XC-Integration:       0.022
   Time for Sigma-Completion:     0.000
   Size of expansion space: 5
   Lowest Energy          :     0.135897659662
   Maximum Energy change  :     0.000626229680 (vector 0)
   Maximum residual norm  :     0.000098250358

                       ****Iteration    3****
   Time for densities:            0.000
   Time for RI-J (Direct):        0.034
   Time for K (COSX):             0.282
   Time for XC-Integration:       0.022
   Time for Sigma-Completion:     0.000
   Size of expansion space: 6
   Lowest Energy          :     0.135762011910
   Maximum Energy change  :     0.000135647753 (vector 0)
   Maximum residual norm  :     0.000010768926

                       ****Iteration    4****
   Time for densities:            0.000
   Time for RI-J (Direct):        0.034
   Time for K (COSX):             0.276
   Time for XC-Integration:       0.022
   Time for Sigma-Completion:     0.000
   Size of expansion space: 7
   Lowest Energy          :     0.135749653506
   Maximum Energy change  :     0.000012358404 (vector 0)
   Maximum residual norm  :     0.000000803834

                       ****Iteration    5****
   Time for densities:            0.000
   Time for RI-J (Direct):        0.034
   Time for K (COSX):             0.248
   Time for XC-Integration:       0.023
   Time for Sigma-Completion:     0.000
   Size of expansion space: 8
   Lowest Energy          :     0.135748462081
   Maximum Energy change  :     0.000001191425 (vector 0)
   Maximum residual norm  :     0.000000027246

      *** CONVERGENCE OF RESIDUAL NORM REACHED ***

Storing the converged CI vectors               ... acrolien.483.cis1

                 *** DAVIDSON DONE ***

Total time for solving the CIS problem:     2.884sec

------------------------------------
TD-DFT/TDA EXCITED STATES (SINGLETS)
------------------------------------

the weight of the individual excitations are printed if larger than 1.0e-02

STATE  1:  E=   0.135748 au      3.694 eV    29793.3 cm**-1 <S**2> =   0.000000
    14a ->  15a  :     0.938443 (c=  0.96873282)
    14a ->  16a  :     0.050344 (c= -0.22437450)


-----------------------------
TD-DFT/TDA-EXCITATION SPECTRA
-----------------------------

Center of mass = (  0.5767, -0.9089, -0.0002)
Calculating the Dipole integrals                  ... done
Transforming integrals                            ... done
Calculating the Linear Momentum integrals         ... done
Transforming integrals                            ... done
Calculating angular momentum integrals            ... done
Transforming integrals                            ... done

-----------------------------------------------------------------------------
         ABSORPTION SPECTRUM VIA TRANSITION ELECTRIC DIPOLE MOMENTS
-----------------------------------------------------------------------------
State   Energy    Wavelength  fosc         T2        TX        TY        TZ  
        (cm-1)      (nm)                 (au**2)    (au)      (au)      (au) 
-----------------------------------------------------------------------------
   1   29793.3    335.6   0.000285259   0.00315  -0.04962  -0.01112   0.02380

-----------------------------------------------------------------------------
         ABSORPTION SPECTRUM VIA TRANSITION VELOCITY DIPOLE MOMENTS
-----------------------------------------------------------------------------
State   Energy    Wavelength   fosc        P2         PX        PY        PZ  
        (cm-1)      (nm)                 (au**2)     (au)      (au)      (au) 
-----------------------------------------------------------------------------
   1   29793.3    335.6   0.000442359   0.00009   0.00360  -0.00037  -0.00877

-------------------------------------------------------------------
                             CD SPECTRUM
-------------------------------------------------------------------
State  Energy     Wavelength     R         MX        MY        MZ   
       (cm-1)       (nm)     (1e40*cgs)   (au)      (au)      (au)  
-------------------------------------------------------------------
   1   29793.3    335.6     -3.11357   0.03542   0.40136  -0.01608

-------------------------------------------------------------------
         CD SPECTRUM VIA TRANSITION VELOCITY DIPOLE MOMENTS        
-------------------------------------------------------------------
State  Energy     Wavelength     R         MX        MY        MZ   
       (cm-1)       (nm)     (1e40*cgs)   (au)      (au)      (au)  
-------------------------------------------------------------------
   1   29793.3    335.6      0.42165   0.03542   0.40136  -0.01608

Total run time:        3.975 sec

           *** ORCA-CIS/TD-DFT FINISHED WITHOUT ERROR ***

Maximum memory used throughout the entire CIS-calculation: 44.1 MB

-----------------------
CIS/TD-DFT TOTAL ENERGY
-----------------------

    E(SCF)  =   -191.727332971 Eh
    DE(CIS) =      0.135748462 Eh (Root  1)
    ----------------------------- ---------
    E(tot)  =   -191.591584509 Eh


-------------------------   --------------------
FINAL SINGLE POINT ENERGY      -191.591584509245
-------------------------   --------------------


                            ***************************************
                            *     ORCA property calculations      *
                            ***************************************

                                    ---------------------
                                    Active property flags
                                    ---------------------
   (+) Dipole Moment


------------------------------------------------------------------------------
                       ORCA ELECTRIC PROPERTIES CALCULATION
------------------------------------------------------------------------------

Dipole Moment Calculation                       ... on
Quadrupole Moment Calculation                   ... off
Polarizability Calculation                      ... off
GBWName                                         ... acrolien.483.gbw
Electron density                                ... acrolien.483.scfp
The origin for moment calculation is the CENTER OF MASS  = ( 0.576732, -0.908892 -0.000158)

-------------
DIPOLE MOMENT
-------------
                                X             Y             Z
Electronic contribution:     -1.92947      -1.45875       0.09255
Nuclear contribution   :      2.28493       2.47185      -0.22855
                        -----------------------------------------
Total Dipole Moment    :      0.35546       1.01310      -0.13600
                        -----------------------------------------
Magnitude (a.u.)       :      1.08223
Magnitude (Debye)      :      2.75080



--------------------
Rotational spectrum 
--------------------
 
Rotational constants in cm-1:     0.752341     0.202905     0.160100 
Rotational constants in MHz : 22554.610478  6082.948207  4799.681822 

 Dipole components along the rotational axes: 
x,y,z [a.u.] :     0.839393    -0.669056    -0.137830 
x,y,z [Debye]:     2.133568    -1.700604    -0.350336 

 

Timings for individual modules:

Sum of individual times         ...       35.982 sec (=   0.600 min)
GTO integral calculation        ...        0.286 sec (=   0.005 min)   0.8 %
SCF iterations                  ...       31.693 sec (=   0.528 min)  88.1 %
CIS module                      ...        4.003 sec (=   0.067 min)  11.1 %
                             ****ORCA TERMINATED NORMALLY****
TOTAL RUN TIME: 0 days 0 hours 0 minutes 36 seconds 182 msec
