
                                 *****************
                                 * O   R   C   A *
                                 *****************

                                            #,                                       
                                            ###                                      
                                            ####                                     
                                            #####                                    
                                            ######                                   
                                           ########,                                 
                                     ,,################,,,,,                         
                               ,,#################################,,                 
                          ,,##########################################,,             
                       ,#########################################, ''#####,          
                    ,#############################################,,   '####,        
                  ,##################################################,,,,####,       
                ,###########''''           ''''###############################       
              ,#####''   ,,,,##########,,,,          '''####'''          '####       
            ,##' ,,,,###########################,,,                        '##       
           ' ,,###''''                  '''############,,,                           
         ,,##''                                '''############,,,,        ,,,,,,###''
      ,#''                                            '''#######################'''  
     '                                                          ''''####''''         
             ,#######,   #######,   ,#######,      ##                                
            ,#'     '#,  ##    ##  ,#'     '#,    #''#        ######   ,####,        
            ##       ##  ##   ,#'  ##            #'  '#       #        #'  '#        
            ##       ##  #######   ##           ,######,      #####,   #    #        
            '#,     ,#'  ##    ##  '#,     ,#' ,#      #,         ##   #,  ,#        
             '#######'   ##     ##  '#######'  #'      '#     #####' # '####'        



                  #######################################################
                  #                        -***-                        #
                  #          Department of theory and spectroscopy      #
                  #    Directorship and core code : Frank Neese         #
                  #        Max Planck Institute fuer Kohlenforschung    #
                  #                Kaiser Wilhelm Platz 1               #
                  #                 D-45470 Muelheim/Ruhr               #
                  #                      Germany                        #
                  #                                                     #
                  #                  All rights reserved                #
                  #                        -***-                        #
                  #######################################################


                         Program Version 5.0.3 -  RELEASE  -


 With contributions from (in alphabetic order):
   Daniel Aravena         : Magnetic Suceptibility
   Michael Atanasov       : Ab Initio Ligand Field Theory (pilot matlab implementation)
   Alexander A. Auer      : GIAO ZORA, VPT2 properties, NMR spectrum
   Ute Becker             : Parallelization
   Giovanni Bistoni       : ED, misc. LED, open-shell LED, HFLD
   Martin Brehm           : Molecular dynamics
   Dmytro Bykov           : SCF Hessian
   Vijay G. Chilkuri      : MRCI spin determinant printing, contributions to CSF-ICE
   Dipayan Datta          : RHF DLPNO-CCSD density
   Achintya Kumar Dutta   : EOM-CC, STEOM-CC
   Dmitry Ganyushin       : Spin-Orbit,Spin-Spin,Magnetic field MRCI
   Miquel Garcia          : C-PCM and meta-GGA Hessian, CC/C-PCM, Gaussian charge scheme
   Yang Guo               : DLPNO-NEVPT2, F12-NEVPT2, CIM, IAO-localization
   Andreas Hansen         : Spin unrestricted coupled pair/coupled cluster methods
   Benjamin Helmich-Paris : MC-RPA, TRAH-SCF, COSX integrals
   Lee Huntington         : MR-EOM, pCC
   Robert Izsak           : Overlap fitted RIJCOSX, COSX-SCS-MP3, EOM
   Marcus Kettner         : VPT2
   Christian Kollmar      : KDIIS, OOCD, Brueckner-CCSD(T), CCSD density, CASPT2, CASPT2-K
   Simone Kossmann        : Meta GGA functionals, TD-DFT gradient, OOMP2, MP2 Hessian
   Martin Krupicka        : Initial AUTO-CI
   Lucas Lang             : DCDCAS
   Marvin Lechner         : AUTO-CI (C++ implementation), FIC-MRCC
   Dagmar Lenk            : GEPOL surface, SMD
   Dimitrios Liakos       : Extrapolation schemes; Compound Job, initial MDCI parallelization
   Dimitrios Manganas     : Further ROCIS development; embedding schemes
   Dimitrios Pantazis     : SARC Basis sets
   Anastasios Papadopoulos: AUTO-CI, single reference methods and gradients
   Taras Petrenko         : DFT Hessian,TD-DFT gradient, ASA, ECA, R-Raman, ABS, FL, XAS/XES, NRVS
   Peter Pinski           : DLPNO-MP2, DLPNO-MP2 Gradient
   Christoph Reimann      : Effective Core Potentials
   Marius Retegan         : Local ZFS, SOC
   Christoph Riplinger    : Optimizer, TS searches, QM/MM, DLPNO-CCSD(T), (RO)-DLPNO pert. Triples
   Tobias Risthaus        : Range-separated hybrids, TD-DFT gradient, RPA, STAB
   Michael Roemelt        : Original ROCIS implementation
   Masaaki Saitow         : Open-shell DLPNO-CCSD energy and density
   Barbara Sandhoefer     : DKH picture change effects
   Avijit Sen             : IP-ROCIS
   Kantharuban Sivalingam : CASSCF convergence, NEVPT2, FIC-MRCI
   Bernardo de Souza      : ESD, SOC TD-DFT
   Georgi Stoychev        : AutoAux, RI-MP2 NMR, DLPNO-MP2 response
   Willem Van den Heuvel  : Paramagnetic NMR
   Boris Wezisla          : Elementary symmetry handling
   Frank Wennmohs         : Technical directorship


 We gratefully acknowledge several colleagues who have allowed us to
 interface, adapt or use parts of their codes:
   Stefan Grimme, W. Hujo, H. Kruse, P. Pracht,  : VdW corrections, initial TS optimization,
                  C. Bannwarth, S. Ehlert          DFT functionals, gCP, sTDA/sTD-DF
   Ed Valeev, F. Pavosevic, A. Kumar             : LibInt (2-el integral package), F12 methods
   Garnet Chan, S. Sharma, J. Yang, R. Olivares  : DMRG
   Ulf Ekstrom                                   : XCFun DFT Library
   Mihaly Kallay                                 : mrcc  (arbitrary order and MRCC methods)
   Jiri Pittner, Ondrej Demel                    : Mk-CCSD
   Frank Weinhold                                : gennbo (NPA and NBO analysis)
   Christopher J. Cramer and Donald G. Truhlar   : smd solvation model
   Lars Goerigk                                  : TD-DFT with DH, B97 family of functionals
   V. Asgeirsson, H. Jonsson                     : NEB implementation
   FAccTs GmbH                                   : IRC, NEB, NEB-TS, DLPNO-Multilevel, CI-OPT
                                                   MM, QMMM, 2- and 3-layer-ONIOM, Crystal-QMMM,
                                                   LR-CPCM, SF, NACMEs, symmetry and pop. for TD-DFT,
                                                   nearIR, NL-DFT gradient (VV10), updates on ESD,
                                                   ML-optimized integration grids
   S Lehtola, MJT Oliveira, MAL Marques          : LibXC Library
   Liviu Ungur et al                             : ANISO software


 Your calculation uses the libint2 library for the computation of 2-el integrals
 For citations please refer to: http://libint.valeyev.net

 Your ORCA version has been built with support for libXC version: 5.1.0
 For citations please refer to: https://tddft.org/programs/libxc/

 This ORCA versions uses:
   CBLAS   interface :  Fast vector & matrix operations
   LAPACKE interface :  Fast linear algebra routines
   SCALAPACK package :  Parallel linear algebra routines
   Shared memory     :  Shared parallel matrices
   BLAS/LAPACK       :  OpenBLAS 0.3.15  USE64BITINT DYNAMIC_ARCH NO_AFFINITY Haswell SINGLE_THREADED
        Core in use  :  Haswell
   Copyright (c) 2011-2014, The OpenBLAS Project


XCFun DFT library Copyright 2009-2010 Ulf Ekstrom and contributors.
See http://admol.org/xcfun for more information.
This is free software; see the source code for copying conditions.
There is ABSOLUTELY NO WARRANTY; not even for MERCHANTABILITY or FITNESS FOR A PARTICULAR PURPOSE.
For details see the documentation.
Scientific users of this library should cite U. Ekstrom, L. Visscher, R. Bast, A. J. Thorvaldsen and K. Ruud;
J.Chem.Theor.Comp. 2010, DOI: 10.1021/ct100117s
XCFun Version 0.99 

================================================================================

----- Orbital basis set information -----
Your calculation utilizes the basis: 6-31G
   H-He, Li-Ne : W. J. Hehre, R. Ditchfield and J.A. Pople, J. Chem. Phys. 56, 2257 (1972).
                 Note: He and Ne are unpublished basis sets taken from the Gaussian program.
                 Note: Li and B from J. D. Dill and J. A. Pople, J. Chem. Phys. 62, 2921 (1975).
   Na - Ar     : M. M. Francl, W. J. Pietro, W. J. Hehre, J. S. Binkley, M. S. Gordon, 
                 D. J. DeFrees and J. A. Pople, J. Chem. Phys. 77, 3654 (1982).
   K - Zn      : V. A. Rassolov, J. A. Pople, M. A. Ratner, and T. L. Windus, J. Chem. Phys. 109, 1223 (1998).

----- AuxJ basis set information -----
Your calculation utilizes the auxiliary basis: def2/J
   F. Weigend, Phys. Chem. Chem. Phys. 8, 1057 (2006).

================================================================================
                                        WARNINGS
                       Please study these warnings very carefully!
================================================================================

INFO   : Checking CIS options ...

INFO   : the flag for use of the SHARK integral package has been found!

================================================================================
                                       INPUT FILE
================================================================================
NAME = acrolien.758.com
|  1> ! RKS CAM-B3LYP 6-31G
|  2> !TightSCF
|  3> %scf
|  4>  ConvForced true
|  5>  convergence tight
|  6>  MaxIter 500
|  7> end
|  8>  
|  9> %tddft 
| 10>  nroots 1
| 11> end
| 12> 
| 13> # 	28778
| 14> * xyz 0 1
| 15> 		C   -0.615940  -0.453820  -0.005609
| 16> 		O   -0.548929  -1.579912   0.003665
| 17> 		C    0.645989   0.398537   0.013797
| 18> 		C    1.827498  -0.136499  -0.001978
| 19> 		H   -1.599456   0.121284  -0.043838
| 20> 		H    0.392306   1.387574  -0.034260
| 21> 		H    1.909714  -1.300190  -0.051463
| 22> 		H    2.796755   0.409023  -0.002753
| 23> *
| 24> 
| 25>                          ****END OF INPUT****
================================================================================

                       ****************************
                       * Single Point Calculation *
                       ****************************

---------------------------------
CARTESIAN COORDINATES (ANGSTROEM)
---------------------------------
  C     -0.615940   -0.453820   -0.005609
  O     -0.548929   -1.579912    0.003665
  C      0.645989    0.398537    0.013797
  C      1.827498   -0.136499   -0.001978
  H     -1.599456    0.121284   -0.043838
  H      0.392306    1.387574   -0.034260
  H      1.909714   -1.300190   -0.051463
  H      2.796755    0.409023   -0.002753

----------------------------
CARTESIAN COORDINATES (A.U.)
----------------------------
  NO LB      ZA    FRAG     MASS         X           Y           Z
   0 C     6.0000    0    12.011   -1.163958   -0.857596   -0.010599
   1 O     8.0000    0    15.999   -1.037325   -2.985601    0.006926
   2 C     6.0000    0    12.011    1.220742    0.753126    0.026073
   3 C     6.0000    0    12.011    3.453471   -0.257946   -0.003738
   4 H     1.0000    0     1.008   -3.022534    0.229194   -0.082842
   5 H     1.0000    0     1.008    0.741351    2.622135   -0.064742
   6 H     1.0000    0     1.008    3.608836   -2.457003   -0.097251
   7 H     1.0000    0     1.008    5.285101    0.772941   -0.005202

--------------------------------
INTERNAL COORDINATES (ANGSTROEM)
--------------------------------
 C      0   0   0     0.000000000000     0.00000000     0.00000000
 O      1   0   0     1.128122189154     0.00000000     0.00000000
 C      1   2   0     1.522942497052   120.62026353     0.00000000
 C      3   1   2     1.297102882967   121.58447405     2.24665194
 H      1   2   3     1.139960433310   123.71836354   179.13111275
 H      3   1   2     1.022183313847   109.58998942   177.85874600
 H      4   3   1     1.167640774965   118.40771554     1.09894551
 H      4   3   1     1.112229286235   126.26261107   179.17601846

---------------------------
INTERNAL COORDINATES (A.U.)
---------------------------
 C      0   0   0     0.000000000000     0.00000000     0.00000000
 O      1   0   0     2.131841983100     0.00000000     0.00000000
 C      1   2   0     2.877944237138   120.62026353     0.00000000
 C      3   1   2     2.451169216328   121.58447405     2.24665194
 H      1   2   3     2.154213022463   123.71836354   179.13111275
 H      3   1   2     1.931646521835   109.58998942   177.85874600
 H      4   3   1     2.206521287484   118.40771554     1.09894551
 H      4   3   1     2.101808749110   126.26261107   179.17601846

---------------------
BASIS SET INFORMATION
---------------------
There are 3 groups of distinct atoms

 Group   1 Type C   : 10s4p contracted to 3s2p pattern {631/31}
 Group   2 Type O   : 10s4p contracted to 3s2p pattern {631/31}
 Group   3 Type H   : 4s contracted to 2s pattern {31}

Atom   0C    basis set group =>   1
Atom   1O    basis set group =>   2
Atom   2C    basis set group =>   1
Atom   3C    basis set group =>   1
Atom   4H    basis set group =>   3
Atom   5H    basis set group =>   3
Atom   6H    basis set group =>   3
Atom   7H    basis set group =>   3
---------------------------------
AUXILIARY/J BASIS SET INFORMATION
---------------------------------
There are 3 groups of distinct atoms

 Group   1 Type C   : 12s5p4d2f1g contracted to 6s4p3d1f1g pattern {711111/2111/211/2/1}
 Group   2 Type O   : 12s5p4d2f1g contracted to 6s4p3d1f1g pattern {711111/2111/211/2/1}
 Group   3 Type H   : 5s2p1d contracted to 3s1p1d pattern {311/2/1}

Atom   0C    basis set group =>   1
Atom   1O    basis set group =>   2
Atom   2C    basis set group =>   1
Atom   3C    basis set group =>   1
Atom   4H    basis set group =>   3
Atom   5H    basis set group =>   3
Atom   6H    basis set group =>   3
Atom   7H    basis set group =>   3
------------------------------------------------------------------------------
                           ORCA GTO INTEGRAL CALCULATION
                           -- RI-GTO INTEGRALS CHOSEN --
------------------------------------------------------------------------------
------------------------------------------------------------------------------
                   ___                                                        
                  /   \      - P O W E R E D   B Y -                         
                 /     \                                                     
                 |  |  |   _    _      __       _____    __    __             
                 |  |  |  | |  | |    /  \     |  _  \  |  |  /  |          
                  \  \/   | |  | |   /    \    | | | |  |  | /  /          
                 / \  \   | |__| |  /  /\  \   | |_| |  |  |/  /          
                |  |  |   |  __  | /  /__\  \  |    /   |      \           
                |  |  |   | |  | | |   __   |  |    \   |  |\   \          
                \     /   | |  | | |  |  |  |  | |\  \  |  | \   \       
                 \___/    |_|  |_| |__|  |__|  |_| \__\ |__|  \__/        
                                                                              
                      - O R C A' S   B I G   F R I E N D -                    
                                      &                                       
                       - I N T E G R A L  F E E D E R -                       
                                                                              
 v1 FN, 2020, v2 2021                                                         
------------------------------------------------------------------------------


Reading SHARK input file acrolien.758.SHARKINP.tmp ... ok
----------------------
SHARK INTEGRAL PACKAGE
----------------------

Number of atoms                             ...      8
Number of basis functions                   ...     44
Number of shells                            ...     28
Maximum angular momentum                    ...      1
Integral batch strategy                     ... SHARK/LIBINT Hybrid
RI-J (if used) integral strategy            ... SPLIT-RIJ (Revised 2003 algorithm where possible)
Printlevel                                  ...      1
Contraction scheme used                     ... SEGMENTED contraction
Coulomb Range Separation                    ... NOT USED
Exchange Range Separation                   ... Long Range
   Mu parameter                             ...  0.330000
   Scaling (regular/separated)              ...  0.190000  0.460000
Finite Nucleus Model                        ... NOT USED
Auxiliary Coulomb fitting basis             ... AVAILABLE
   # of basis functions in Aux-J            ...    240
   # of shells in Aux-J                     ...     80
   Maximum angular momentum in Aux-J        ...      4
Auxiliary J/K fitting basis                 ... NOT available
Auxiliary Correlation fitting basis         ... NOT available
Auxiliary 'external' fitting basis          ... NOT available
Integral threshold                          ...     2.500000e-11
Primitive cut-off                           ...     2.500000e-12
Primitive pair pre-selection threshold      ...     2.500000e-12

Calculating pre-screening integrals         ... done (  0.0 sec) Dimension = 28
Organizing shell pair data                  ... done (  0.0 sec)
Shell pair information
Total number of shell pairs                 ...       406
Shell pairs after pre-screening             ...       402
Total number of primitive shell pairs       ...      2724
Primitive shell pairs kept                  ...      2025
          la=0 lb=0:    206 shell pairs
          la=1 lb=0:    160 shell pairs
          la=1 lb=1:     36 shell pairs

Calculating one electron integrals          ... done (  0.0 sec)
Calculating RI/J V-Matrix + Cholesky decomp.... done (  0.1 sec)
Calculating Nuclear repulsion               ... done (  0.0 sec) ENN=    106.866386212615 Eh

SHARK setup successfully completed in   0.3 seconds

Maximum memory used throughout the entire GTOINT-calculation: 8.3 MB
-------------------------------------------------------------------------------
                                 ORCA SCF
-------------------------------------------------------------------------------

------------
SCF SETTINGS
------------
Hamiltonian:
 Density Functional     Method          .... DFT(GTOs)
 Exchange Functional    Exchange        .... WB88
 Correlation Functional Correlation     .... LYP
 LDA part of GGA corr.  LDAOpt          .... VWN-5
 Gradients option       PostSCFGGA      .... off
 Hybrid DFT is turned on
   Fraction HF Exchange ScalHFX         ....  0.190000
   Scaling of DF-GGA-X  ScalDFX         ....  0.350000
   Scaling of DF-GGA-C  ScalDFC         ....  0.810000
   Scaling of DF-LDA-C  ScalLDAC        ....  1.000000
   Perturbative correction              ....  0.000000
   Density functional embedding theory  .... OFF
 Long-range corrected/Screened/Range-Separated Hybrid DFT is turned on
   Amount of maximum screened exact exchange              ....  0.460000
   Range separation parameter mu (erf(mu*r12)/r12)        ....  0.330000
 RI-approximation to the Coulomb term is turned on
   Number of AuxJ basis functions       .... 240
   RIJ-COSX (HFX calculated with COS-X)).... on


General Settings:
 Integral files         IntName         .... acrolien.758
 Hartree-Fock type      HFTyp           .... RHF
 Total Charge           Charge          ....    0
 Multiplicity           Mult            ....    1
 Number of Electrons    NEL             ....   30
 Basis Dimension        Dim             ....   44
 Nuclear Repulsion      ENuc            ....    106.8663862126 Eh

Convergence Acceleration:
 DIIS                   CNVDIIS         .... on
   Start iteration      DIISMaxIt       ....    12
   Startup error        DIISStart       ....  0.200000
   # of expansion vecs  DIISMaxEq       ....     5
   Bias factor          DIISBfac        ....   1.050
   Max. coefficient     DIISMaxC        ....  10.000
 Trust-Rad. Augm. Hess. CNVTRAH         .... auto
   Auto Start mean grad. ratio tolernc. ....  1.125000
   Auto Start start iteration           ....    20
   Auto Start num. interpolation iter.  ....    10
   Max. Number of Micro iterations      ....    16
   Max. Number of Macro iterations      .... Maxiter - #DIIS iter
   Number of Davidson start vectors     ....     2
   Converg. threshold I  (grad. norm)   ....   1.000e-05
   Converg. threshold II (energy diff.) ....   1.000e-08
   Grad. Scal. Fac. for Micro threshold ....   0.100
   Minimum threshold for Micro iter.    ....   0.010
   NR start threshold (gradient norm)   ....   0.001
   Initial trust radius                 ....   0.400
   Minimum AH scaling param. (alpha)    ....   1.000
   Maximum AH scaling param. (alpha)    .... 1000.000
   Orbital update algorithm             .... Taylor
   White noise on init. David. guess    .... on
   Maximum white noise                  ....   0.010
   Quad. conv. algorithm                .... NR
 SOSCF                  CNVSOSCF        .... on
   Start iteration      SOSCFMaxIt      ....   150
   Startup grad/error   SOSCFStart      ....  0.003300
 Level Shifting         CNVShift        .... on
   Level shift para.    LevelShift      ....    0.2500
   Turn off err/grad.   ShiftErr        ....    0.0010
 Zerner damping         CNVZerner       .... off
 Static damping         CNVDamp         .... on
   Fraction old density DampFac         ....    0.7000
   Max. Damping (<1)    DampMax         ....    0.9800
   Min. Damping (>=0)   DampMin         ....    0.0000
   Turn off err/grad.   DampErr         ....    0.1000
 Fernandez-Rico         CNVRico         .... off

SCF Procedure:
 Maximum # iterations   MaxIter         ....   500
 SCF integral mode      SCFMode         .... Direct
   Integral package                     .... SHARK and LIBINT hybrid scheme
 Reset frequency        DirectResetFreq ....    20
 Integral Threshold     Thresh          ....  2.500e-11 Eh
 Primitive CutOff       TCut            ....  2.500e-12 Eh

Convergence Tolerance:
 Convergence Check Mode ConvCheckMode   .... Total+1el-Energy
 Convergence forced     ConvForced      .... 1
 Energy Change          TolE            ....  1.000e-08 Eh
 1-El. energy change                    ....  1.000e-05 Eh
 Orbital Gradient       TolG            ....  1.000e-05
 Orbital Rotation angle TolX            ....  1.000e-05
 DIIS Error             TolErr          ....  5.000e-07


Diagonalization of the overlap matrix:
Smallest eigenvalue                        ... 4.065e-03
Time for diagonalization                   ...    0.001 sec
Threshold for overlap eigenvalues          ... 1.000e-08
Number of eigenvalues below threshold      ... 0
Time for construction of square roots      ...    0.001 sec
Total time needed                          ...    0.002 sec

Time for model grid setup =    0.052 sec

------------------------------
INITIAL GUESS: MODEL POTENTIAL
------------------------------
Loading Hartree-Fock densities                     ... done
Calculating cut-offs                               ... done
Initializing the effective Hamiltonian             ... done
Setting up the integral package (SHARK)            ... done
Starting the Coulomb interaction                   ... done (   0.3 sec)
Reading the grid                                   ... done
Mapping shells                                     ... done
Starting the XC term evaluation                    ... done (   0.0 sec)
  promolecular density results
     # of electrons  =     30.000360509
     EX              =    -24.639966466
     EC              =     -0.969657231
     EX+EC           =    -25.609623697
Transforming the Hamiltonian                       ... done (   0.0 sec)
Diagonalizing the Hamiltonian                      ... done (   0.0 sec)
Back transforming the eigenvectors                 ... done (   0.0 sec)
Now organizing SCF variables                       ... done
                      ------------------
                      INITIAL GUESS DONE (   0.4 sec)
                      ------------------
-------------------
DFT GRID GENERATION
-------------------

General Integration Accuracy     IntAcc      ... 4.388
Radial Grid Type                 RadialGrid  ... OptM3 with GC (2021)
Angular Grid (max. ang.)         AngularGrid ... 4 (Lebedev-302)
Angular grid pruning method      GridPruning ... 4 (adaptive)
Weight generation scheme         WeightScheme... Becke
Basis function cutoff            BFCut       ... 1.0000e-11
Integration weight cutoff        WCut        ... 1.0000e-14
Angular grids for H and He will be reduced by one unit
Partially contracted basis set               ... off
Rotationally invariant grid construction     ... off

Total number of grid points                  ...    37365
Total number of batches                      ...      589
Average number of points per batch           ...       63
Average number of grid points per atom       ...     4671
Time for grid setup =    0.304 sec

--------------------
COSX GRID GENERATION
--------------------

GRIDX 1
-------
General Integration Accuracy     IntAcc      ... 3.816
Radial Grid Type                 RadialGrid  ... OptM3 with GC (2021)
Angular Grid (max. ang.)         AngularGrid ... 1 (Lebedev-50)
Angular grid pruning method      GridPruning ... 4 (adaptive)
Weight generation scheme         WeightScheme... Becke
Basis function cutoff            BFCut       ... 1.0000e-11
Integration weight cutoff        WCut        ... 1.0000e-14
Angular grids for H and He will be reduced by one unit
Partially contracted basis set               ... on
Rotationally invariant grid construction     ... off

Total number of grid points                  ...     4795
Total number of batches                      ...       79
Average number of points per batch           ...       60
Average number of grid points per atom       ...      599
UseSFitting                                  ... on

GRIDX 2
-------
General Integration Accuracy     IntAcc      ... 4.020
Radial Grid Type                 RadialGrid  ... OptM3 with GC (2021)
Angular Grid (max. ang.)         AngularGrid ... 2 (Lebedev-110)
Angular grid pruning method      GridPruning ... 4 (adaptive)
Weight generation scheme         WeightScheme... Becke
Basis function cutoff            BFCut       ... 1.0000e-11
Integration weight cutoff        WCut        ... 1.0000e-14
Angular grids for H and He will be reduced by one unit
Partially contracted basis set               ... on
Rotationally invariant grid construction     ... off

Total number of grid points                  ...    10535
Total number of batches                      ...      168
Average number of points per batch           ...       62
Average number of grid points per atom       ...     1317
UseSFitting                                  ... on

GRIDX 3
-------
General Integration Accuracy     IntAcc      ... 4.338
Radial Grid Type                 RadialGrid  ... OptM3 with GC (2021)
Angular Grid (max. ang.)         AngularGrid ... 3 (Lebedev-194)
Angular grid pruning method      GridPruning ... 4 (adaptive)
Weight generation scheme         WeightScheme... Becke
Basis function cutoff            BFCut       ... 1.0000e-11
Integration weight cutoff        WCut        ... 1.0000e-14
Angular grids for H and He will be reduced by one unit
Partially contracted basis set               ... on
Rotationally invariant grid construction     ... off

Total number of grid points                  ...    23265
Total number of batches                      ...      368
Average number of points per batch           ...       63
Average number of grid points per atom       ...     2908
UseSFitting                                  ... on

Time for X-Grid setup             =    1.421 sec

--------------
SCF ITERATIONS
--------------
ITER       Energy         Delta-E        Max-DP      RMS-DP      [F,P]     Damp
               ***  Starting incremental Fock matrix formation  ***
  0   -191.6047430141   0.000000000000 0.07844335  0.00589962  0.2396833 0.7000
  1   -191.6560695879  -0.051326573831 0.04931032  0.00406183  0.1105812 0.7000
                               ***Turning on DIIS***
  2   -191.6779160428  -0.021846454894 0.07057384  0.00685611  0.0378157 0.0000
  3   -191.7136890008  -0.035772958032 0.03267724  0.00279003  0.0554622 0.0000
  4   -191.7198041835  -0.006115182654 0.00701545  0.00072814  0.0100124 0.0000
                      *** Initiating the SOSCF procedure ***
                           *** Shutting down DIIS ***
                      *** Re-Reading the Fockian *** 
                      *** Removing any level shift *** 
ITER      Energy       Delta-E        Grad      Rot      Max-DP    RMS-DP
  5   -191.72016100  -0.0003568153  0.000778  0.000778  0.002514  0.000242
               *** Restarting incremental Fock matrix formation ***
  6   -191.72019640  -0.0000354000  0.000476  0.001093  0.001661  0.000150
  7   -191.72020067  -0.0000042731  0.000182  0.000868  0.001242  0.000094
  8   -191.72020117  -0.0000004994  0.000107  0.000243  0.000243  0.000021
  9   -191.72020134  -0.0000001638  0.000035  0.000048  0.000161  0.000012
 10   -191.72020134  -0.0000000043  0.000026  0.000024  0.000088  0.000006
 11   -191.72020135  -0.0000000089  0.000005  0.000010  0.000013  0.000001
 12   -191.72020135   0.0000000001  0.000005  0.000006  0.000007  0.000001
                  ***Gradient check signals convergence***
              ***Rediagonalizing the Fockian in SOSCF/NRSCF***

               *****************************************************
               *                     SUCCESS                       *
               *           SCF CONVERGED AFTER  13 CYCLES          *
               *****************************************************

Old exchange energy                            =     -7.131124574 Eh
New exchange energy                            =     -7.131108298 Eh
Exchange energy change after final integration =      0.000016276 Eh
Total energy after final integration           =   -191.720185072 Eh
Final COS-X integration done in                =     2.064 sec

----------------
TOTAL SCF ENERGY
----------------

Total Energy       :         -191.72018507 Eh           -5216.97146 eV

Components:
Nuclear Repulsion  :          106.86638621 Eh            2907.98221 eV
Electronic Energy  :         -298.58657128 Eh           -8124.95367 eV
One Electron Energy:         -470.51392480 Eh          -12803.33480 eV
Two Electron Energy:          171.92735351 Eh            4678.38113 eV
Max COSX asymmetry :            0.00000167 Eh               0.00005 eV

Virial components:
Potential Energy   :         -382.87636635 Eh          -10418.59560 eV
Kinetic Energy     :          191.15618128 Eh            5201.62414 eV
Virial Ratio       :            2.00295049


DFT components:
N(Alpha)           :       15.000002858097 electrons
N(Beta)            :       15.000002858097 electrons
N(Total)           :       30.000005716193 electrons
E(XC)              :      -19.124937972517 Eh       
DFET-embed. en.    :        0.000000000000 Eh       

---------------
SCF CONVERGENCE
---------------

  Last Energy change         ...    7.9524e-11  Tolerance :   1.0000e-08
  Last MAX-Density change    ...    3.9968e-15  Tolerance :   1.0000e-07
  Last RMS-Density change    ...    1.4720e-16  Tolerance :   5.0000e-09
  Last Orbital Gradient      ...    3.5099e-07  Tolerance :   1.0000e-05
  Last Orbital Rotation      ...    1.0975e-06  Tolerance :   1.0000e-05

             **** THE GBW FILE WAS UPDATED (acrolien.758.gbw) ****
             **** DENSITY acrolien.758.scfp WAS UPDATED ****
             **** ENERGY FILE WAS UPDATED (acrolien.758.en.tmp) ****
             **** THE GBW FILE WAS UPDATED (acrolien.758.gbw) ****
             **** DENSITY acrolien.758.scfp WAS UPDATED ****
----------------
ORBITAL ENERGIES
----------------

  NO   OCC          E(Eh)            E(eV) 
   0   2.0000     -19.228922      -523.2456 
   1   2.0000     -10.356763      -281.8219 
   2   2.0000     -10.280496      -279.7465 
   3   2.0000     -10.261255      -279.2230 
   4   2.0000      -1.211136       -32.9567 
   5   2.0000      -0.878545       -23.9064 
   6   2.0000      -0.724568       -19.7165 
   7   2.0000      -0.616561       -16.7775 
   8   2.0000      -0.589453       -16.0398 
   9   2.0000      -0.526557       -14.3283 
  10   2.0000      -0.511554       -13.9201 
  11   2.0000      -0.504061       -13.7162 
  12   2.0000      -0.436626       -11.8812 
  13   2.0000      -0.351427        -9.5628 
  14   2.0000      -0.317842        -8.6489 
  15   0.0000       0.001824         0.0496 
  16   0.0000       0.134232         3.6526 
  17   0.0000       0.149692         4.0733 
  18   0.0000       0.171966         4.6794 
  19   0.0000       0.215179         5.8553 
  20   0.0000       0.237774         6.4701 
  21   0.0000       0.321014         8.7352 
  22   0.0000       0.383889        10.4462 
  23   0.0000       0.390384        10.6229 
  24   0.0000       0.563213        15.3258 
  25   0.0000       0.576517        15.6878 
  26   0.0000       0.636553        17.3215 
  27   0.0000       0.677816        18.4443 
  28   0.0000       0.708314        19.2742 
  29   0.0000       0.715486        19.4694 
  30   0.0000       0.792299        21.5596 
  31   0.0000       0.849614        23.1192 
  32   0.0000       0.876712        23.8565 
  33   0.0000       0.890995        24.2452 
  34   0.0000       0.963636        26.2219 
  35   0.0000       0.993325        27.0297 
  36   0.0000       1.033154        28.1135 
  37   0.0000       1.053358        28.6633 
  38   0.0000       1.060103        28.8469 
  39   0.0000       1.194781        32.5116 
  40   0.0000       1.225019        33.3345 
  41   0.0000       1.259333        34.2682 
  42   0.0000       1.407593        38.3026 
  43   0.0000       1.863696        50.7138 

                    ********************************
                    * MULLIKEN POPULATION ANALYSIS *
                    ********************************

-----------------------
MULLIKEN ATOMIC CHARGES
-----------------------
   0 C :    0.146213
   1 O :   -0.290166
   2 C :   -0.105715
   3 C :   -0.290796
   4 H :    0.099016
   5 H :    0.124784
   6 H :    0.165963
   7 H :    0.150700
Sum of atomic charges:   -0.0000000

--------------------------------
MULLIKEN REDUCED ORBITAL CHARGES
--------------------------------
  0 C s       :     3.181461  s :     3.181461
      pz      :     0.779278  p :     2.672326
      px      :     1.039233
      py      :     0.853814
  1 O s       :     3.874229  s :     3.874229
      pz      :     1.278264  p :     4.415937
      px      :     1.784551
      py      :     1.353121
  2 C s       :     3.180368  s :     3.180368
      pz      :     1.028416  p :     2.925347
      px      :     0.911343
      py      :     0.985589
  3 C s       :     3.290810  s :     3.290810
      pz      :     0.914729  p :     2.999986
      px      :     1.018309
      py      :     1.066947
  4 H s       :     0.900984  s :     0.900984
  5 H s       :     0.875216  s :     0.875216
  6 H s       :     0.834037  s :     0.834037
  7 H s       :     0.849300  s :     0.849300


                     *******************************
                     * LOEWDIN POPULATION ANALYSIS *
                     *******************************

----------------------
LOEWDIN ATOMIC CHARGES
----------------------
   0 C :    0.103027
   1 O :   -0.175772
   2 C :   -0.199928
   3 C :   -0.169094
   4 H :    0.064948
   5 H :    0.115041
   6 H :    0.134613
   7 H :    0.127165

-------------------------------
LOEWDIN REDUCED ORBITAL CHARGES
-------------------------------
  0 C s       :     2.971578  s :     2.971578
      pz      :     0.784859  p :     2.925396
      px      :     1.081517
      py      :     1.059020
  1 O s       :     3.567907  s :     3.567907
      pz      :     1.275518  p :     4.607865
      px      :     1.828404
      py      :     1.503943
  2 C s       :     2.964325  s :     2.964325
      pz      :     1.018826  p :     3.235603
      px      :     1.110021
      py      :     1.106756
  3 C s       :     3.002447  s :     3.002447
      pz      :     0.921574  p :     3.166647
      px      :     1.118048
      py      :     1.127025
  4 H s       :     0.935052  s :     0.935052
  5 H s       :     0.884959  s :     0.884959
  6 H s       :     0.865387  s :     0.865387
  7 H s       :     0.872835  s :     0.872835


                      *****************************
                      * MAYER POPULATION ANALYSIS *
                      *****************************

  NA   - Mulliken gross atomic population
  ZA   - Total nuclear charge
  QA   - Mulliken gross atomic charge
  VA   - Mayer's total valence
  BVA  - Mayer's bonded valence
  FA   - Mayer's free valence

  ATOM       NA         ZA         QA         VA         BVA        FA
  0 C      5.8538     6.0000     0.1462     3.8023     3.8023    -0.0000
  1 O      8.2902     8.0000    -0.2902     2.1131     2.1131    -0.0000
  2 C      6.1057     6.0000    -0.1057     3.7648     3.7648    -0.0000
  3 C      6.2908     6.0000    -0.2908     3.8593     3.8593    -0.0000
  4 H      0.9010     1.0000     0.0990     0.9349     0.9349     0.0000
  5 H      0.8752     1.0000     0.1248     0.9421     0.9421    -0.0000
  6 H      0.8340     1.0000     0.1660     0.9515     0.9515    -0.0000
  7 H      0.8493     1.0000     0.1507     0.9463     0.9463    -0.0000

  Mayer bond orders larger than 0.100000
B(  0-C ,  1-O ) :   1.9733 B(  0-C ,  2-C ) :   0.9359 B(  0-C ,  4-H ) :   0.8679 
B(  2-C ,  3-C ) :   1.9166 B(  2-C ,  5-H ) :   0.9371 B(  3-C ,  6-H ) :   0.9327 
B(  3-C ,  7-H ) :   0.9437 

-------
TIMINGS
-------

Total SCF time: 0 days 0 hours 0 min 28 sec 

Total time                  ....      28.572 sec
Sum of individual times     ....      25.778 sec  ( 90.2%)

Fock matrix formation       ....      23.313 sec  ( 81.6%)
  Split-RI-J                ....       0.608 sec  (  2.6% of F)
  Chain of spheres X        ....      11.835 sec  ( 50.8% of F)
  XC integration            ....       4.356 sec  ( 18.7% of F)
    Basis function eval.    ....       0.995 sec  ( 22.8% of XC)
    Density eval.           ....       0.373 sec  (  8.6% of XC)
    XC-Functional eval.     ....       1.454 sec  ( 33.4% of XC)
    XC-Potential eval.      ....       0.238 sec  (  5.5% of XC)
Diagonalization             ....       0.003 sec  (  0.0%)
Density matrix formation    ....       0.000 sec  (  0.0%)
Population analysis         ....       0.002 sec  (  0.0%)
Initial guess               ....       0.378 sec  (  1.3%)
Orbital Transformation      ....       0.000 sec  (  0.0%)
Orbital Orthonormalization  ....       0.000 sec  (  0.0%)
DIIS solution               ....       0.032 sec  (  0.1%)
SOSCF solution              ....       0.273 sec  (  1.0%)
Grid generation             ....       1.777 sec  (  6.2%)

Maximum memory used throughout the entire SCF-calculation: 46.8 MB
------------------------------------------------------------------------------
                        ORCA TD-DFT/TDA CALCULATION
------------------------------------------------------------------------------

Input orbitals are from        ... acrolien.758.gbw
CI-vector output               ... acrolien.758.cis
Tamm-Dancoff approximation     ... operative
CIS-Integral strategy          ... AO-integrals
Integral handling              ... AO integral Direct
Max. core memory used          ... 512 MB
Reference state                ... RHF
Generation of triplets         ... off
Follow IRoot                   ... off
Number of operators            ... 1
Orbital ranges used for CIS calculation:
 Operator 0:  Orbitals   4... 14  to  15... 43
XAS localization array:
 Operator 0:  Orbitals  -1... -1

-------------------
XC-INTEGRATION GRID
-------------------

General Integration Accuracy     IntAcc      ... 3.467
Radial Grid Type                 RadialGrid  ... OptM3 with GC (2021)
Angular Grid (max. ang.)         AngularGrid ... 1 (Lebedev-50)
Angular grid pruning method      GridPruning ... 4 (adaptive)
Weight generation scheme         WeightScheme... Becke
Basis function cutoff            BFCut       ... 1.0000e-11
Integration weight cutoff        WCut        ... 1.0000e-14
Angular grids for H and He will be reduced by one unit
Partially contracted basis set               ... off
Rotationally invariant grid construction     ... off

Total number of grid points                  ...     5487
Total number of batches                      ...       91
Average number of points per batch           ...       60
Average number of grid points per atom       ...      686

---------------------
COSX-INTEGRATION GRID
---------------------

General Integration Accuracy     IntAcc      ... 3.067
Radial Grid Type                 RadialGrid  ... OptM3 with GC (2021)
Angular Grid (max. ang.)         AngularGrid ... 1 (Lebedev-50)
Angular grid pruning method      GridPruning ... 4 (adaptive)
Weight generation scheme         WeightScheme... Becke
Basis function cutoff            BFCut       ... 1.0000e-11
Integration weight cutoff        WCut        ... 1.0000e-14
Angular grids for H and He will be reduced by one unit
Partially contracted basis set               ... on
Rotationally invariant grid construction     ... off

Total number of grid points                  ...     2505
Total number of batches                      ...       45
Average number of points per batch           ...       55
Average number of grid points per atom       ...      313

---------------
TD-DFT XC SETUP
---------------

DFT calculation                         ... on
Name of the grid file                   ... acrolien.758.grid_cis.tmp
Exchange functional (TD-DFT)            ... WB88
Correlation functional (TD-DFT)         ... LYP
 LDA part of GGA corr.  LDAOpt (TD-DFT) ... VWN-5
Hybrid DFT                              ... on
   Exchange mixing (TD-DFT)             ...  0.190
   GGA exch. scaling (TD-DFT)           ...  0.350
   GGA corr. scaling (TD-DFT)           ...  0.810
Range-Separated Exchange                ... on
   Range Range separation parameter mu  .... 0.330
   Max. amount of RS exchange (TD-DFT)  ...  0.460

Building densities             ... done
Calculating rho(r) on the grid ... done
Building xc-kernel on the grid ... done
                    *** TD-DFT CALCULATION INITIALIZED ***

------------------------
DAVIDSON-DIAGONALIZATION
------------------------

Dimension of the eigenvalue problem            ...    319
Number of roots to be determined               ...      1
Maximum size of the expansion space            ...     10
Maximum number of iterations                   ...    100
Convergence tolerance for the residual         ...    2.500e-07
Convergence tolerance for the energies         ...    2.500e-07
Orthogonality tolerance                        ...    1.000e-14
Level Shift                                    ...    0.000e+00
Constructing the preconditioner                ... o.k.
Building the initial guess                     ... o.k.
Number of trial vectors determined             ...     10


                       ****Iteration    0****

   Memory handling for direct AO based CIS:
   Memory per vector needed      ...     1 MB
   Memory needed                 ...     0 MB
   Memory available              ...   512 MB
   Number of vectors per batch   ...   512
   Number of batches             ...     1
   Time for densities:            0.000
   Time for RI-J (Direct):        0.043
   Time for K (COSX):             0.427
   Time for XC-Integration:       0.038
   Time for Sigma-Completion:     0.000
   Size of expansion space: 3
   Lowest Energy          :     0.158224123336
   Maximum Energy change  :     0.158224123336 (vector 0)
   Maximum residual norm  :     0.001857931545

                       ****Iteration    1****
   Time for densities:            0.000
   Time for RI-J (Direct):        0.034
   Time for K (COSX):             0.243
   Time for XC-Integration:       0.022
   Time for Sigma-Completion:     0.000
   Size of expansion space: 4
   Lowest Energy          :     0.150520664050
   Maximum Energy change  :     0.007703459286 (vector 0)
   Maximum residual norm  :     0.000192901028

                       ****Iteration    2****
   Time for densities:            0.000
   Time for RI-J (Direct):        0.034
   Time for K (COSX):             0.494
   Time for XC-Integration:       0.022
   Time for Sigma-Completion:     0.000
   Size of expansion space: 5
   Lowest Energy          :     0.150072457755
   Maximum Energy change  :     0.000448206295 (vector 0)
   Maximum residual norm  :     0.000013436820

                       ****Iteration    3****
   Time for densities:            0.000
   Time for RI-J (Direct):        0.034
   Time for K (COSX):             0.277
   Time for XC-Integration:       0.022
   Time for Sigma-Completion:     0.000
   Size of expansion space: 6
   Lowest Energy          :     0.150054904558
   Maximum Energy change  :     0.000017553197 (vector 0)
   Maximum residual norm  :     0.000002940759

                       ****Iteration    4****
   Time for densities:            0.000
   Time for RI-J (Direct):        0.034
   Time for K (COSX):             0.247
   Time for XC-Integration:       0.022
   Time for Sigma-Completion:     0.000
   Size of expansion space: 7
   Lowest Energy          :     0.150052197195
   Maximum Energy change  :     0.000002707363 (vector 0)
   Maximum residual norm  :     0.000000078314

      *** CONVERGENCE OF RESIDUAL NORM REACHED ***

Storing the converged CI vectors               ... acrolien.758.cis1

                 *** DAVIDSON DONE ***

Total time for solving the CIS problem:     2.004sec

------------------------------------
TD-DFT/TDA EXCITED STATES (SINGLETS)
------------------------------------

the weight of the individual excitations are printed if larger than 1.0e-02

STATE  1:  E=   0.150052 au      4.083 eV    32932.7 cm**-1 <S**2> =   0.000000
    14a ->  15a  :     0.950805 (c=  0.97509246)
    14a ->  16a  :     0.042292 (c=  0.20565138)


-----------------------------
TD-DFT/TDA-EXCITATION SPECTRA
-----------------------------

Center of mass = (  0.5749, -0.9087, -0.0000)
Calculating the Dipole integrals                  ... done
Transforming integrals                            ... done
Calculating the Linear Momentum integrals         ... done
Transforming integrals                            ... done
Calculating angular momentum integrals            ... done
Transforming integrals                            ... done

-----------------------------------------------------------------------------
         ABSORPTION SPECTRUM VIA TRANSITION ELECTRIC DIPOLE MOMENTS
-----------------------------------------------------------------------------
State   Energy    Wavelength  fosc         T2        TX        TY        TZ  
        (cm-1)      (nm)                 (au**2)    (au)      (au)      (au) 
-----------------------------------------------------------------------------
   1   32932.7    303.7   0.000080614   0.00081  -0.00897  -0.00516   0.02643

-----------------------------------------------------------------------------
         ABSORPTION SPECTRUM VIA TRANSITION VELOCITY DIPOLE MOMENTS
-----------------------------------------------------------------------------
State   Energy    Wavelength   fosc        P2         PX        PY        PZ  
        (cm-1)      (nm)                 (au**2)     (au)      (au)      (au) 
-----------------------------------------------------------------------------
   1   32932.7    303.7   0.000387242   0.00009  -0.00017   0.00046  -0.00932

-------------------------------------------------------------------
                             CD SPECTRUM
-------------------------------------------------------------------
State  Energy     Wavelength     R         MX        MY        MZ   
       (cm-1)       (nm)     (1e40*cgs)   (au)      (au)      (au)  
-------------------------------------------------------------------
   1   32932.7    303.7     -1.13996   0.02574   0.39351  -0.00587

-------------------------------------------------------------------
         CD SPECTRUM VIA TRANSITION VELOCITY DIPOLE MOMENTS        
-------------------------------------------------------------------
State  Energy     Wavelength     R         MX        MY        MZ   
       (cm-1)       (nm)     (1e40*cgs)   (au)      (au)      (au)  
-------------------------------------------------------------------
   1   32932.7    303.7      0.72623   0.02574   0.39351  -0.00587

Total run time:        4.390 sec

           *** ORCA-CIS/TD-DFT FINISHED WITHOUT ERROR ***

Maximum memory used throughout the entire CIS-calculation: 44.1 MB

-----------------------
CIS/TD-DFT TOTAL ENERGY
-----------------------

    E(SCF)  =   -191.720185072 Eh
    DE(CIS) =      0.150052197 Eh (Root  1)
    ----------------------------- ---------
    E(tot)  =   -191.570132875 Eh


-------------------------   --------------------
FINAL SINGLE POINT ENERGY      -191.570132874898
-------------------------   --------------------


                            ***************************************
                            *     ORCA property calculations      *
                            ***************************************

                                    ---------------------
                                    Active property flags
                                    ---------------------
   (+) Dipole Moment


------------------------------------------------------------------------------
                       ORCA ELECTRIC PROPERTIES CALCULATION
------------------------------------------------------------------------------

Dipole Moment Calculation                       ... on
Quadrupole Moment Calculation                   ... off
Polarizability Calculation                      ... off
GBWName                                         ... acrolien.758.gbw
Electron density                                ... acrolien.758.scfp
The origin for moment calculation is the CENTER OF MASS  = ( 0.574899, -0.908658 -0.000005)

-------------
DIPOLE MOMENT
-------------
                                X             Y             Z
Electronic contribution:     -1.86828      -1.51644       0.08611
Nuclear contribution   :      2.12870       2.36770      -0.12407
                        -----------------------------------------
Total Dipole Moment    :      0.26042       0.85126      -0.03796
                        -----------------------------------------
Magnitude (a.u.)       :      0.89101
Magnitude (Debye)      :      2.26478



--------------------
Rotational spectrum 
--------------------
 
Rotational constants in cm-1:     0.794449     0.216641     0.170252 
Rotational constants in MHz : 23816.992980  6494.728301  5104.035893 

 Dipole components along the rotational axes: 
x,y,z [a.u.] :     0.651729    -0.606366    -0.038382 
x,y,z [Debye]:     1.656564    -1.541261    -0.097558 

 

Timings for individual modules:

Sum of individual times         ...       33.895 sec (=   0.565 min)
GTO integral calculation        ...        0.401 sec (=   0.007 min)   1.2 %
SCF iterations                  ...       28.581 sec (=   0.476 min)  84.3 %
CIS module                      ...        4.913 sec (=   0.082 min)  14.5 %
                             ****ORCA TERMINATED NORMALLY****
TOTAL RUN TIME: 0 days 0 hours 0 minutes 34 seconds 690 msec
