
                                 *****************
                                 * O   R   C   A *
                                 *****************

                                            #,                                       
                                            ###                                      
                                            ####                                     
                                            #####                                    
                                            ######                                   
                                           ########,                                 
                                     ,,################,,,,,                         
                               ,,#################################,,                 
                          ,,##########################################,,             
                       ,#########################################, ''#####,          
                    ,#############################################,,   '####,        
                  ,##################################################,,,,####,       
                ,###########''''           ''''###############################       
              ,#####''   ,,,,##########,,,,          '''####'''          '####       
            ,##' ,,,,###########################,,,                        '##       
           ' ,,###''''                  '''############,,,                           
         ,,##''                                '''############,,,,        ,,,,,,###''
      ,#''                                            '''#######################'''  
     '                                                          ''''####''''         
             ,#######,   #######,   ,#######,      ##                                
            ,#'     '#,  ##    ##  ,#'     '#,    #''#        ######   ,####,        
            ##       ##  ##   ,#'  ##            #'  '#       #        #'  '#        
            ##       ##  #######   ##           ,######,      #####,   #    #        
            '#,     ,#'  ##    ##  '#,     ,#' ,#      #,         ##   #,  ,#        
             '#######'   ##     ##  '#######'  #'      '#     #####' # '####'        



                  #######################################################
                  #                        -***-                        #
                  #          Department of theory and spectroscopy      #
                  #    Directorship and core code : Frank Neese         #
                  #        Max Planck Institute fuer Kohlenforschung    #
                  #                Kaiser Wilhelm Platz 1               #
                  #                 D-45470 Muelheim/Ruhr               #
                  #                      Germany                        #
                  #                                                     #
                  #                  All rights reserved                #
                  #                        -***-                        #
                  #######################################################


                         Program Version 5.0.3 -  RELEASE  -


 With contributions from (in alphabetic order):
   Daniel Aravena         : Magnetic Suceptibility
   Michael Atanasov       : Ab Initio Ligand Field Theory (pilot matlab implementation)
   Alexander A. Auer      : GIAO ZORA, VPT2 properties, NMR spectrum
   Ute Becker             : Parallelization
   Giovanni Bistoni       : ED, misc. LED, open-shell LED, HFLD
   Martin Brehm           : Molecular dynamics
   Dmytro Bykov           : SCF Hessian
   Vijay G. Chilkuri      : MRCI spin determinant printing, contributions to CSF-ICE
   Dipayan Datta          : RHF DLPNO-CCSD density
   Achintya Kumar Dutta   : EOM-CC, STEOM-CC
   Dmitry Ganyushin       : Spin-Orbit,Spin-Spin,Magnetic field MRCI
   Miquel Garcia          : C-PCM and meta-GGA Hessian, CC/C-PCM, Gaussian charge scheme
   Yang Guo               : DLPNO-NEVPT2, F12-NEVPT2, CIM, IAO-localization
   Andreas Hansen         : Spin unrestricted coupled pair/coupled cluster methods
   Benjamin Helmich-Paris : MC-RPA, TRAH-SCF, COSX integrals
   Lee Huntington         : MR-EOM, pCC
   Robert Izsak           : Overlap fitted RIJCOSX, COSX-SCS-MP3, EOM
   Marcus Kettner         : VPT2
   Christian Kollmar      : KDIIS, OOCD, Brueckner-CCSD(T), CCSD density, CASPT2, CASPT2-K
   Simone Kossmann        : Meta GGA functionals, TD-DFT gradient, OOMP2, MP2 Hessian
   Martin Krupicka        : Initial AUTO-CI
   Lucas Lang             : DCDCAS
   Marvin Lechner         : AUTO-CI (C++ implementation), FIC-MRCC
   Dagmar Lenk            : GEPOL surface, SMD
   Dimitrios Liakos       : Extrapolation schemes; Compound Job, initial MDCI parallelization
   Dimitrios Manganas     : Further ROCIS development; embedding schemes
   Dimitrios Pantazis     : SARC Basis sets
   Anastasios Papadopoulos: AUTO-CI, single reference methods and gradients
   Taras Petrenko         : DFT Hessian,TD-DFT gradient, ASA, ECA, R-Raman, ABS, FL, XAS/XES, NRVS
   Peter Pinski           : DLPNO-MP2, DLPNO-MP2 Gradient
   Christoph Reimann      : Effective Core Potentials
   Marius Retegan         : Local ZFS, SOC
   Christoph Riplinger    : Optimizer, TS searches, QM/MM, DLPNO-CCSD(T), (RO)-DLPNO pert. Triples
   Tobias Risthaus        : Range-separated hybrids, TD-DFT gradient, RPA, STAB
   Michael Roemelt        : Original ROCIS implementation
   Masaaki Saitow         : Open-shell DLPNO-CCSD energy and density
   Barbara Sandhoefer     : DKH picture change effects
   Avijit Sen             : IP-ROCIS
   Kantharuban Sivalingam : CASSCF convergence, NEVPT2, FIC-MRCI
   Bernardo de Souza      : ESD, SOC TD-DFT
   Georgi Stoychev        : AutoAux, RI-MP2 NMR, DLPNO-MP2 response
   Willem Van den Heuvel  : Paramagnetic NMR
   Boris Wezisla          : Elementary symmetry handling
   Frank Wennmohs         : Technical directorship


 We gratefully acknowledge several colleagues who have allowed us to
 interface, adapt or use parts of their codes:
   Stefan Grimme, W. Hujo, H. Kruse, P. Pracht,  : VdW corrections, initial TS optimization,
                  C. Bannwarth, S. Ehlert          DFT functionals, gCP, sTDA/sTD-DF
   Ed Valeev, F. Pavosevic, A. Kumar             : LibInt (2-el integral package), F12 methods
   Garnet Chan, S. Sharma, J. Yang, R. Olivares  : DMRG
   Ulf Ekstrom                                   : XCFun DFT Library
   Mihaly Kallay                                 : mrcc  (arbitrary order and MRCC methods)
   Jiri Pittner, Ondrej Demel                    : Mk-CCSD
   Frank Weinhold                                : gennbo (NPA and NBO analysis)
   Christopher J. Cramer and Donald G. Truhlar   : smd solvation model
   Lars Goerigk                                  : TD-DFT with DH, B97 family of functionals
   V. Asgeirsson, H. Jonsson                     : NEB implementation
   FAccTs GmbH                                   : IRC, NEB, NEB-TS, DLPNO-Multilevel, CI-OPT
                                                   MM, QMMM, 2- and 3-layer-ONIOM, Crystal-QMMM,
                                                   LR-CPCM, SF, NACMEs, symmetry and pop. for TD-DFT,
                                                   nearIR, NL-DFT gradient (VV10), updates on ESD,
                                                   ML-optimized integration grids
   S Lehtola, MJT Oliveira, MAL Marques          : LibXC Library
   Liviu Ungur et al                             : ANISO software


 Your calculation uses the libint2 library for the computation of 2-el integrals
 For citations please refer to: http://libint.valeyev.net

 Your ORCA version has been built with support for libXC version: 5.1.0
 For citations please refer to: https://tddft.org/programs/libxc/

 This ORCA versions uses:
   CBLAS   interface :  Fast vector & matrix operations
   LAPACKE interface :  Fast linear algebra routines
   SCALAPACK package :  Parallel linear algebra routines
   Shared memory     :  Shared parallel matrices
   BLAS/LAPACK       :  OpenBLAS 0.3.15  USE64BITINT DYNAMIC_ARCH NO_AFFINITY Haswell SINGLE_THREADED
        Core in use  :  Haswell
   Copyright (c) 2011-2014, The OpenBLAS Project


XCFun DFT library Copyright 2009-2010 Ulf Ekstrom and contributors.
See http://admol.org/xcfun for more information.
This is free software; see the source code for copying conditions.
There is ABSOLUTELY NO WARRANTY; not even for MERCHANTABILITY or FITNESS FOR A PARTICULAR PURPOSE.
For details see the documentation.
Scientific users of this library should cite U. Ekstrom, L. Visscher, R. Bast, A. J. Thorvaldsen and K. Ruud;
J.Chem.Theor.Comp. 2010, DOI: 10.1021/ct100117s
XCFun Version 0.99 

================================================================================

----- Orbital basis set information -----
Your calculation utilizes the basis: 6-31G
   H-He, Li-Ne : W. J. Hehre, R. Ditchfield and J.A. Pople, J. Chem. Phys. 56, 2257 (1972).
                 Note: He and Ne are unpublished basis sets taken from the Gaussian program.
                 Note: Li and B from J. D. Dill and J. A. Pople, J. Chem. Phys. 62, 2921 (1975).
   Na - Ar     : M. M. Francl, W. J. Pietro, W. J. Hehre, J. S. Binkley, M. S. Gordon, 
                 D. J. DeFrees and J. A. Pople, J. Chem. Phys. 77, 3654 (1982).
   K - Zn      : V. A. Rassolov, J. A. Pople, M. A. Ratner, and T. L. Windus, J. Chem. Phys. 109, 1223 (1998).

----- AuxJ basis set information -----
Your calculation utilizes the auxiliary basis: def2/J
   F. Weigend, Phys. Chem. Chem. Phys. 8, 1057 (2006).

================================================================================
                                        WARNINGS
                       Please study these warnings very carefully!
================================================================================

INFO   : Checking CIS options ...

INFO   : the flag for use of the SHARK integral package has been found!

================================================================================
                                       INPUT FILE
================================================================================
NAME = acrolien.622.com
|  1> ! RKS CAM-B3LYP 6-31G
|  2> !TightSCF
|  3> %scf
|  4>  ConvForced true
|  5>  convergence tight
|  6>  MaxIter 500
|  7> end
|  8>  
|  9> %tddft 
| 10>  nroots 1
| 11> end
| 12> 
| 13> # 	12055
| 14> * xyz 0 1
| 15> 		C   -1.167739  -0.385553   0.011801
| 16> 		O   -2.044527  -0.766585  -0.732249
| 17> 		C    0.080299   0.425377  -0.319560
| 18> 		C    1.245449   0.142321   0.159965
| 19> 		H   -1.326444  -0.651035   1.077471
| 20> 		H   -0.195127   1.189867  -1.090088
| 21> 		H    1.215887  -0.658188   0.912688
| 22> 		H    2.133565   0.706374  -0.036647
| 23> *
| 24> 
| 25>                          ****END OF INPUT****
================================================================================

                       ****************************
                       * Single Point Calculation *
                       ****************************

---------------------------------
CARTESIAN COORDINATES (ANGSTROEM)
---------------------------------
  C     -1.167739   -0.385553    0.011801
  O     -2.044527   -0.766585   -0.732249
  C      0.080299    0.425377   -0.319560
  C      1.245449    0.142321    0.159965
  H     -1.326444   -0.651035    1.077471
  H     -0.195127    1.189867   -1.090088
  H      1.215887   -0.658188    0.912688
  H      2.133565    0.706374   -0.036647

----------------------------
CARTESIAN COORDINATES (A.U.)
----------------------------
  NO LB      ZA    FRAG     MASS         X           Y           Z
   0 C     6.0000    0    12.011   -2.206707   -0.728590    0.022301
   1 O     8.0000    0    15.999   -3.863596   -1.448636   -1.383750
   2 C     6.0000    0    12.011    0.151743    0.803846   -0.603881
   3 C     6.0000    0    12.011    2.353558    0.268948    0.302290
   4 H     1.0000    0     1.008   -2.506616   -1.230278    2.036125
   5 H     1.0000    0     1.008   -0.368737    2.248523   -2.059968
   6 H     1.0000    0     1.008    2.297693   -1.243795    1.724730
   7 H     1.0000    0     1.008    4.031854    1.334853   -0.069253

--------------------------------
INTERNAL COORDINATES (ANGSTROEM)
--------------------------------
 C      0   0   0     0.000000000000     0.00000000     0.00000000
 O      1   0   0     1.211426012792     0.00000000     0.00000000
 C      1   2   0     1.524797175583   128.77041417     0.00000000
 C      3   1   2     1.291371150081   122.76714377   223.79404931
 H      1   2   3     1.109648826543   114.27300690   178.30574252
 H      3   1   2     1.119829380022   108.13688560    38.37880514
 H      4   3   1     1.099218124693   112.93213534   353.22623243
 H      4   3   1     1.070309345381   124.39853673   181.49141768

---------------------------
INTERNAL COORDINATES (A.U.)
---------------------------
 C      0   0   0     0.000000000000     0.00000000     0.00000000
 O      1   0   0     2.289263395684     0.00000000     0.00000000
 C      1   2   0     2.881449071628   128.77041417     0.00000000
 C      3   1   2     2.440337810900   122.76714377   223.79404931
 H      1   2   3     2.096932386994   114.27300690   178.30574252
 H      3   1   2     2.116170844960   108.13688560    38.37880514
 H      4   3   1     2.077221217113   112.93213534   353.22623243
 H      4   3   1     2.022591541346   124.39853673   181.49141768

---------------------
BASIS SET INFORMATION
---------------------
There are 3 groups of distinct atoms

 Group   1 Type C   : 10s4p contracted to 3s2p pattern {631/31}
 Group   2 Type O   : 10s4p contracted to 3s2p pattern {631/31}
 Group   3 Type H   : 4s contracted to 2s pattern {31}

Atom   0C    basis set group =>   1
Atom   1O    basis set group =>   2
Atom   2C    basis set group =>   1
Atom   3C    basis set group =>   1
Atom   4H    basis set group =>   3
Atom   5H    basis set group =>   3
Atom   6H    basis set group =>   3
Atom   7H    basis set group =>   3
---------------------------------
AUXILIARY/J BASIS SET INFORMATION
---------------------------------
There are 3 groups of distinct atoms

 Group   1 Type C   : 12s5p4d2f1g contracted to 6s4p3d1f1g pattern {711111/2111/211/2/1}
 Group   2 Type O   : 12s5p4d2f1g contracted to 6s4p3d1f1g pattern {711111/2111/211/2/1}
 Group   3 Type H   : 5s2p1d contracted to 3s1p1d pattern {311/2/1}

Atom   0C    basis set group =>   1
Atom   1O    basis set group =>   2
Atom   2C    basis set group =>   1
Atom   3C    basis set group =>   1
Atom   4H    basis set group =>   3
Atom   5H    basis set group =>   3
Atom   6H    basis set group =>   3
Atom   7H    basis set group =>   3
------------------------------------------------------------------------------
                           ORCA GTO INTEGRAL CALCULATION
                           -- RI-GTO INTEGRALS CHOSEN --
------------------------------------------------------------------------------
------------------------------------------------------------------------------
                   ___                                                        
                  /   \      - P O W E R E D   B Y -                         
                 /     \                                                     
                 |  |  |   _    _      __       _____    __    __             
                 |  |  |  | |  | |    /  \     |  _  \  |  |  /  |          
                  \  \/   | |  | |   /    \    | | | |  |  | /  /          
                 / \  \   | |__| |  /  /\  \   | |_| |  |  |/  /          
                |  |  |   |  __  | /  /__\  \  |    /   |      \           
                |  |  |   | |  | | |   __   |  |    \   |  |\   \          
                \     /   | |  | | |  |  |  |  | |\  \  |  | \   \       
                 \___/    |_|  |_| |__|  |__|  |_| \__\ |__|  \__/        
                                                                              
                      - O R C A' S   B I G   F R I E N D -                    
                                      &                                       
                       - I N T E G R A L  F E E D E R -                       
                                                                              
 v1 FN, 2020, v2 2021                                                         
------------------------------------------------------------------------------


Reading SHARK input file acrolien.622.SHARKINP.tmp ... ok
----------------------
SHARK INTEGRAL PACKAGE
----------------------

Number of atoms                             ...      8
Number of basis functions                   ...     44
Number of shells                            ...     28
Maximum angular momentum                    ...      1
Integral batch strategy                     ... SHARK/LIBINT Hybrid
RI-J (if used) integral strategy            ... SPLIT-RIJ (Revised 2003 algorithm where possible)
Printlevel                                  ...      1
Contraction scheme used                     ... SEGMENTED contraction
Coulomb Range Separation                    ... NOT USED
Exchange Range Separation                   ... Long Range
   Mu parameter                             ...  0.330000
   Scaling (regular/separated)              ...  0.190000  0.460000
Finite Nucleus Model                        ... NOT USED
Auxiliary Coulomb fitting basis             ... AVAILABLE
   # of basis functions in Aux-J            ...    240
   # of shells in Aux-J                     ...     80
   Maximum angular momentum in Aux-J        ...      4
Auxiliary J/K fitting basis                 ... NOT available
Auxiliary Correlation fitting basis         ... NOT available
Auxiliary 'external' fitting basis          ... NOT available
Integral threshold                          ...     2.500000e-11
Primitive cut-off                           ...     2.500000e-12
Primitive pair pre-selection threshold      ...     2.500000e-12

Calculating pre-screening integrals         ... done (  0.0 sec) Dimension = 28
Organizing shell pair data                  ... done (  0.0 sec)
Shell pair information
Total number of shell pairs                 ...       406
Shell pairs after pre-screening             ...       397
Total number of primitive shell pairs       ...      2724
Primitive shell pairs kept                  ...      1994
          la=0 lb=0:    203 shell pairs
          la=1 lb=0:    158 shell pairs
          la=1 lb=1:     36 shell pairs

Calculating one electron integrals          ... done (  0.0 sec)
Calculating RI/J V-Matrix + Cholesky decomp.... done (  0.0 sec)
Calculating Nuclear repulsion               ... done (  0.0 sec) ENN=    102.663528155441 Eh

SHARK setup successfully completed in   0.3 seconds

Maximum memory used throughout the entire GTOINT-calculation: 8.3 MB
-------------------------------------------------------------------------------
                                 ORCA SCF
-------------------------------------------------------------------------------

------------
SCF SETTINGS
------------
Hamiltonian:
 Density Functional     Method          .... DFT(GTOs)
 Exchange Functional    Exchange        .... WB88
 Correlation Functional Correlation     .... LYP
 LDA part of GGA corr.  LDAOpt          .... VWN-5
 Gradients option       PostSCFGGA      .... off
 Hybrid DFT is turned on
   Fraction HF Exchange ScalHFX         ....  0.190000
   Scaling of DF-GGA-X  ScalDFX         ....  0.350000
   Scaling of DF-GGA-C  ScalDFC         ....  0.810000
   Scaling of DF-LDA-C  ScalLDAC        ....  1.000000
   Perturbative correction              ....  0.000000
   Density functional embedding theory  .... OFF
 Long-range corrected/Screened/Range-Separated Hybrid DFT is turned on
   Amount of maximum screened exact exchange              ....  0.460000
   Range separation parameter mu (erf(mu*r12)/r12)        ....  0.330000
 RI-approximation to the Coulomb term is turned on
   Number of AuxJ basis functions       .... 240
   RIJ-COSX (HFX calculated with COS-X)).... on


General Settings:
 Integral files         IntName         .... acrolien.622
 Hartree-Fock type      HFTyp           .... RHF
 Total Charge           Charge          ....    0
 Multiplicity           Mult            ....    1
 Number of Electrons    NEL             ....   30
 Basis Dimension        Dim             ....   44
 Nuclear Repulsion      ENuc            ....    102.6635281554 Eh

Convergence Acceleration:
 DIIS                   CNVDIIS         .... on
   Start iteration      DIISMaxIt       ....    12
   Startup error        DIISStart       ....  0.200000
   # of expansion vecs  DIISMaxEq       ....     5
   Bias factor          DIISBfac        ....   1.050
   Max. coefficient     DIISMaxC        ....  10.000
 Trust-Rad. Augm. Hess. CNVTRAH         .... auto
   Auto Start mean grad. ratio tolernc. ....  1.125000
   Auto Start start iteration           ....    20
   Auto Start num. interpolation iter.  ....    10
   Max. Number of Micro iterations      ....    16
   Max. Number of Macro iterations      .... Maxiter - #DIIS iter
   Number of Davidson start vectors     ....     2
   Converg. threshold I  (grad. norm)   ....   1.000e-05
   Converg. threshold II (energy diff.) ....   1.000e-08
   Grad. Scal. Fac. for Micro threshold ....   0.100
   Minimum threshold for Micro iter.    ....   0.010
   NR start threshold (gradient norm)   ....   0.001
   Initial trust radius                 ....   0.400
   Minimum AH scaling param. (alpha)    ....   1.000
   Maximum AH scaling param. (alpha)    .... 1000.000
   Orbital update algorithm             .... Taylor
   White noise on init. David. guess    .... on
   Maximum white noise                  ....   0.010
   Quad. conv. algorithm                .... NR
 SOSCF                  CNVSOSCF        .... on
   Start iteration      SOSCFMaxIt      ....   150
   Startup grad/error   SOSCFStart      ....  0.003300
 Level Shifting         CNVShift        .... on
   Level shift para.    LevelShift      ....    0.2500
   Turn off err/grad.   ShiftErr        ....    0.0010
 Zerner damping         CNVZerner       .... off
 Static damping         CNVDamp         .... on
   Fraction old density DampFac         ....    0.7000
   Max. Damping (<1)    DampMax         ....    0.9800
   Min. Damping (>=0)   DampMin         ....    0.0000
   Turn off err/grad.   DampErr         ....    0.1000
 Fernandez-Rico         CNVRico         .... off

SCF Procedure:
 Maximum # iterations   MaxIter         ....   500
 SCF integral mode      SCFMode         .... Direct
   Integral package                     .... SHARK and LIBINT hybrid scheme
 Reset frequency        DirectResetFreq ....    20
 Integral Threshold     Thresh          ....  2.500e-11 Eh
 Primitive CutOff       TCut            ....  2.500e-12 Eh

Convergence Tolerance:
 Convergence Check Mode ConvCheckMode   .... Total+1el-Energy
 Convergence forced     ConvForced      .... 1
 Energy Change          TolE            ....  1.000e-08 Eh
 1-El. energy change                    ....  1.000e-05 Eh
 Orbital Gradient       TolG            ....  1.000e-05
 Orbital Rotation angle TolX            ....  1.000e-05
 DIIS Error             TolErr          ....  5.000e-07


Diagonalization of the overlap matrix:
Smallest eigenvalue                        ... 4.990e-03
Time for diagonalization                   ...    0.001 sec
Threshold for overlap eigenvalues          ... 1.000e-08
Number of eigenvalues below threshold      ... 0
Time for construction of square roots      ...    0.062 sec
Total time needed                          ...    0.063 sec

Time for model grid setup =    0.063 sec

------------------------------
INITIAL GUESS: MODEL POTENTIAL
------------------------------
Loading Hartree-Fock densities                     ... done
Calculating cut-offs                               ... done
Initializing the effective Hamiltonian             ... done
Setting up the integral package (SHARK)            ... done
Starting the Coulomb interaction                   ... done (   0.4 sec)
Reading the grid                                   ... done
Mapping shells                                     ... done
Starting the XC term evaluation                    ... done (   0.0 sec)
  promolecular density results
     # of electrons  =     29.998516959
     EX              =    -24.603778991
     EC              =     -0.965483677
     EX+EC           =    -25.569262668
Transforming the Hamiltonian                       ... done (   0.0 sec)
Diagonalizing the Hamiltonian                      ... done (   0.0 sec)
Back transforming the eigenvectors                 ... done (   0.0 sec)
Now organizing SCF variables                       ... done
                      ------------------
                      INITIAL GUESS DONE (   0.6 sec)
                      ------------------
-------------------
DFT GRID GENERATION
-------------------

General Integration Accuracy     IntAcc      ... 4.388
Radial Grid Type                 RadialGrid  ... OptM3 with GC (2021)
Angular Grid (max. ang.)         AngularGrid ... 4 (Lebedev-302)
Angular grid pruning method      GridPruning ... 4 (adaptive)
Weight generation scheme         WeightScheme... Becke
Basis function cutoff            BFCut       ... 1.0000e-11
Integration weight cutoff        WCut        ... 1.0000e-14
Angular grids for H and He will be reduced by one unit
Partially contracted basis set               ... off
Rotationally invariant grid construction     ... off

Total number of grid points                  ...    37404
Total number of batches                      ...      587
Average number of points per batch           ...       63
Average number of grid points per atom       ...     4676
Time for grid setup =    0.292 sec

--------------------
COSX GRID GENERATION
--------------------

GRIDX 1
-------
General Integration Accuracy     IntAcc      ... 3.816
Radial Grid Type                 RadialGrid  ... OptM3 with GC (2021)
Angular Grid (max. ang.)         AngularGrid ... 1 (Lebedev-50)
Angular grid pruning method      GridPruning ... 4 (adaptive)
Weight generation scheme         WeightScheme... Becke
Basis function cutoff            BFCut       ... 1.0000e-11
Integration weight cutoff        WCut        ... 1.0000e-14
Angular grids for H and He will be reduced by one unit
Partially contracted basis set               ... on
Rotationally invariant grid construction     ... off

Total number of grid points                  ...     4782
Total number of batches                      ...       79
Average number of points per batch           ...       60
Average number of grid points per atom       ...      598
UseSFitting                                  ... on

GRIDX 2
-------
General Integration Accuracy     IntAcc      ... 4.020
Radial Grid Type                 RadialGrid  ... OptM3 with GC (2021)
Angular Grid (max. ang.)         AngularGrid ... 2 (Lebedev-110)
Angular grid pruning method      GridPruning ... 4 (adaptive)
Weight generation scheme         WeightScheme... Becke
Basis function cutoff            BFCut       ... 1.0000e-11
Integration weight cutoff        WCut        ... 1.0000e-14
Angular grids for H and He will be reduced by one unit
Partially contracted basis set               ... on
Rotationally invariant grid construction     ... off

Total number of grid points                  ...    10548
Total number of batches                      ...      168
Average number of points per batch           ...       62
Average number of grid points per atom       ...     1318
UseSFitting                                  ... on

GRIDX 3
-------
General Integration Accuracy     IntAcc      ... 4.338
Radial Grid Type                 RadialGrid  ... OptM3 with GC (2021)
Angular Grid (max. ang.)         AngularGrid ... 3 (Lebedev-194)
Angular grid pruning method      GridPruning ... 4 (adaptive)
Weight generation scheme         WeightScheme... Becke
Basis function cutoff            BFCut       ... 1.0000e-11
Integration weight cutoff        WCut        ... 1.0000e-14
Angular grids for H and He will be reduced by one unit
Partially contracted basis set               ... on
Rotationally invariant grid construction     ... off

Total number of grid points                  ...    23293
Total number of batches                      ...      368
Average number of points per batch           ...       63
Average number of grid points per atom       ...     2912
UseSFitting                                  ... on

Time for X-Grid setup             =    1.416 sec

--------------
SCF ITERATIONS
--------------
ITER       Energy         Delta-E        Max-DP      RMS-DP      [F,P]     Damp
               ***  Starting incremental Fock matrix formation  ***
  0   -191.6217147031   0.000000000000 0.07643529  0.00593237  0.2242333 0.7000
  1   -191.6733543928  -0.051639689715 0.04567555  0.00384946  0.0963594 0.7000
                               ***Turning on DIIS***
  2   -191.6943161502  -0.020961757396 0.06097650  0.00619656  0.0375060 0.0000
  3   -191.7299350566  -0.035618906435 0.03255067  0.00270468  0.0505989 0.0000
  4   -191.7356256470  -0.005690590343 0.00600182  0.00068118  0.0088380 0.0000
                      *** Initiating the SOSCF procedure ***
                           *** Shutting down DIIS ***
                      *** Re-Reading the Fockian *** 
                      *** Removing any level shift *** 
ITER      Energy       Delta-E        Grad      Rot      Max-DP    RMS-DP
  5   -191.73604663  -0.0004209854  0.000741  0.000741  0.002921  0.000244
               *** Restarting incremental Fock matrix formation ***
  6   -191.73609665  -0.0000500198  0.000530  0.001481  0.001769  0.000151
  7   -191.73610146  -0.0000048099  0.000228  0.000742  0.001369  0.000110
  8   -191.73610229  -0.0000008265  0.000156  0.000266  0.000240  0.000028
  9   -191.73610250  -0.0000002090  0.000037  0.000059  0.000222  0.000016
 10   -191.73610251  -0.0000000166  0.000026  0.000028  0.000114  0.000008
 11   -191.73610253  -0.0000000137  0.000011  0.000026  0.000034  0.000003
 12   -191.73610253  -0.0000000013  0.000007  0.000012  0.000018  0.000002
                  ***Gradient check signals convergence***
              ***Rediagonalizing the Fockian in SOSCF/NRSCF***

               *****************************************************
               *                     SUCCESS                       *
               *           SCF CONVERGED AFTER  13 CYCLES          *
               *****************************************************

Old exchange energy                            =     -7.116363814 Eh
New exchange energy                            =     -7.116381664 Eh
Exchange energy change after final integration =     -0.000017850 Eh
Total energy after final integration           =   -191.736120380 Eh
Final COS-X integration done in                =     2.045 sec

----------------
TOTAL SCF ENERGY
----------------

Total Energy       :         -191.73612038 Eh           -5217.40508 eV

Components:
Nuclear Repulsion  :          102.66352816 Eh            2793.61663 eV
Electronic Energy  :         -294.39964854 Eh           -8011.02171 eV
One Electron Energy:         -462.18029470 Eh          -12576.56520 eV
Two Electron Energy:          167.78064617 Eh            4565.54349 eV
Max COSX asymmetry :            0.00000083 Eh               0.00002 eV

Virial components:
Potential Energy   :         -382.55965953 Eh          -10409.97757 eV
Kinetic Energy     :          190.82353915 Eh            5192.57249 eV
Virial Ratio       :            2.00478233


DFT components:
N(Alpha)           :       15.000001530162 electrons
N(Beta)            :       15.000001530162 electrons
N(Total)           :       30.000003060325 electrons
E(XC)              :      -19.074287590463 Eh       
DFET-embed. en.    :        0.000000000000 Eh       

---------------
SCF CONVERGENCE
---------------

  Last Energy change         ...   -8.1698e-10  Tolerance :   1.0000e-08
  Last MAX-Density change    ...    3.5527e-15  Tolerance :   1.0000e-07
  Last RMS-Density change    ...    1.4061e-16  Tolerance :   5.0000e-09
  Last Orbital Gradient      ...    1.8741e-06  Tolerance :   1.0000e-05
  Last Orbital Rotation      ...    7.9283e-06  Tolerance :   1.0000e-05

             **** THE GBW FILE WAS UPDATED (acrolien.622.gbw) ****
             **** DENSITY acrolien.622.scfp WAS UPDATED ****
             **** ENERGY FILE WAS UPDATED (acrolien.622.en.tmp) ****
             **** THE GBW FILE WAS UPDATED (acrolien.622.gbw) ****
             **** DENSITY acrolien.622.scfp WAS UPDATED ****
----------------
ORBITAL ENERGIES
----------------

  NO   OCC          E(Eh)            E(eV) 
   0   2.0000     -19.230866      -523.2985 
   1   2.0000     -10.361558      -281.9523 
   2   2.0000     -10.285194      -279.8744 
   3   2.0000     -10.281554      -279.7753 
   4   2.0000      -1.156552       -31.4714 
   5   2.0000      -0.896437       -24.3933 
   6   2.0000      -0.724632       -19.7182 
   7   2.0000      -0.644714       -17.5436 
   8   2.0000      -0.563454       -15.3324 
   9   2.0000      -0.548612       -14.9285 
  10   2.0000      -0.502925       -13.6853 
  11   2.0000      -0.467404       -12.7187 
  12   2.0000      -0.447006       -12.1637 
  13   2.0000      -0.362126        -9.8540 
  14   2.0000      -0.319623        -8.6974 
  15   0.0000      -0.004032        -0.1097 
  16   0.0000       0.088076         2.3967 
  17   0.0000       0.161236         4.3875 
  18   0.0000       0.170324         4.6347 
  19   0.0000       0.192340         5.2338 
  20   0.0000       0.228788         6.2256 
  21   0.0000       0.317926         8.6512 
  22   0.0000       0.362699         9.8695 
  23   0.0000       0.387083        10.5331 
  24   0.0000       0.560989        15.2653 
  25   0.0000       0.581585        15.8257 
  26   0.0000       0.632153        17.2017 
  27   0.0000       0.664654        18.0861 
  28   0.0000       0.695885        18.9360 
  29   0.0000       0.723808        19.6958 
  30   0.0000       0.764940        20.8151 
  31   0.0000       0.791468        21.5369 
  32   0.0000       0.900272        24.4977 
  33   0.0000       0.904828        24.6216 
  34   0.0000       0.938672        25.5426 
  35   0.0000       0.986933        26.8558 
  36   0.0000       1.006159        27.3790 
  37   0.0000       1.033081        28.1116 
  38   0.0000       1.069948        29.1148 
  39   0.0000       1.125460        30.6253 
  40   0.0000       1.194548        32.5053 
  41   0.0000       1.229463        33.4554 
  42   0.0000       1.346378        36.6368 
  43   0.0000       1.776480        48.3405 

                    ********************************
                    * MULLIKEN POPULATION ANALYSIS *
                    ********************************

-----------------------
MULLIKEN ATOMIC CHARGES
-----------------------
   0 C :    0.158410
   1 O :   -0.351209
   2 C :   -0.102657
   3 C :   -0.289416
   4 H :    0.109728
   5 H :    0.168088
   6 H :    0.145439
   7 H :    0.161616
Sum of atomic charges:   -0.0000000

--------------------------------
MULLIKEN REDUCED ORBITAL CHARGES
--------------------------------
  0 C s       :     3.192364  s :     3.192364
      pz      :     0.960002  p :     2.649226
      px      :     0.860046
      py      :     0.829177
  1 O s       :     3.926778  s :     3.926778
      pz      :     1.637406  p :     4.424431
      px      :     1.416448
      py      :     1.370577
  2 C s       :     3.187022  s :     3.187022
      pz      :     0.993317  p :     2.915635
      px      :     0.920629
      py      :     1.001690
  3 C s       :     3.263052  s :     3.263052
      pz      :     0.989956  p :     3.026364
      px      :     1.024155
      py      :     1.012254
  4 H s       :     0.890272  s :     0.890272
  5 H s       :     0.831912  s :     0.831912
  6 H s       :     0.854561  s :     0.854561
  7 H s       :     0.838384  s :     0.838384


                     *******************************
                     * LOEWDIN POPULATION ANALYSIS *
                     *******************************

----------------------
LOEWDIN ATOMIC CHARGES
----------------------
   0 C :    0.113330
   1 O :   -0.226089
   2 C :   -0.163231
   3 C :   -0.192540
   4 H :    0.076813
   5 H :    0.132242
   6 H :    0.125019
   7 H :    0.134455

-------------------------------
LOEWDIN REDUCED ORBITAL CHARGES
-------------------------------
  0 C s       :     2.986925  s :     2.986925
      pz      :     1.063198  p :     2.899745
      px      :     0.972843
      py      :     0.863704
  1 O s       :     3.628131  s :     3.628131
      pz      :     1.719461  p :     4.597958
      px      :     1.488348
      py      :     1.390149
  2 C s       :     2.973236  s :     2.973236
      pz      :     1.047280  p :     3.189996
      px      :     1.091478
      py      :     1.051237
  3 C s       :     2.983600  s :     2.983600
      pz      :     1.033699  p :     3.208940
      px      :     1.121891
      py      :     1.053351
  4 H s       :     0.923187  s :     0.923187
  5 H s       :     0.867758  s :     0.867758
  6 H s       :     0.874981  s :     0.874981
  7 H s       :     0.865545  s :     0.865545


                      *****************************
                      * MAYER POPULATION ANALYSIS *
                      *****************************

  NA   - Mulliken gross atomic population
  ZA   - Total nuclear charge
  QA   - Mulliken gross atomic charge
  VA   - Mayer's total valence
  BVA  - Mayer's bonded valence
  FA   - Mayer's free valence

  ATOM       NA         ZA         QA         VA         BVA        FA
  0 C      5.8416     6.0000     0.1584     3.7632     3.7632    -0.0000
  1 O      8.3512     8.0000    -0.3512     2.0202     2.0202    -0.0000
  2 C      6.1027     6.0000    -0.1027     3.7517     3.7517    -0.0000
  3 C      6.2894     6.0000    -0.2894     3.8869     3.8869     0.0000
  4 H      0.8903     1.0000     0.1097     0.9320     0.9320    -0.0000
  5 H      0.8319     1.0000     0.1681     0.9400     0.9400     0.0000
  6 H      0.8546     1.0000     0.1454     0.9472     0.9472    -0.0000
  7 H      0.8384     1.0000     0.1616     0.9461     0.9461     0.0000

  Mayer bond orders larger than 0.100000
B(  0-C ,  1-O ) :   1.9168 B(  0-C ,  2-C ) :   0.9215 B(  0-C ,  4-H ) :   0.8924 
B(  2-C ,  3-C ) :   1.9249 B(  2-C ,  5-H ) :   0.9270 B(  3-C ,  6-H ) :   0.9533 
B(  3-C ,  7-H ) :   0.9456 

-------
TIMINGS
-------

Total SCF time: 0 days 0 hours 0 min 34 sec 

Total time                  ....      34.757 sec
Sum of individual times     ....      31.370 sec  ( 90.3%)

Fock matrix formation       ....      28.856 sec  ( 83.0%)
  Split-RI-J                ....       0.604 sec  (  2.1% of F)
  Chain of spheres X        ....      11.775 sec  ( 40.8% of F)
  XC integration            ....       6.229 sec  ( 21.6% of F)
    Basis function eval.    ....       0.995 sec  ( 16.0% of XC)
    Density eval.           ....       0.380 sec  (  6.1% of XC)
    XC-Functional eval.     ....       1.471 sec  ( 23.6% of XC)
    XC-Potential eval.      ....       0.238 sec  (  3.8% of XC)
Diagonalization             ....       0.003 sec  (  0.0%)
Density matrix formation    ....       0.000 sec  (  0.0%)
Population analysis         ....       0.156 sec  (  0.4%)
Initial guess               ....       0.530 sec  (  1.5%)
Orbital Transformation      ....       0.000 sec  (  0.0%)
Orbital Orthonormalization  ....       0.000 sec  (  0.0%)
DIIS solution               ....       0.001 sec  (  0.0%)
SOSCF solution              ....       0.055 sec  (  0.2%)
Grid generation             ....       1.770 sec  (  5.1%)

Maximum memory used throughout the entire SCF-calculation: 46.7 MB
------------------------------------------------------------------------------
                        ORCA TD-DFT/TDA CALCULATION
------------------------------------------------------------------------------

Input orbitals are from        ... acrolien.622.gbw
CI-vector output               ... acrolien.622.cis
Tamm-Dancoff approximation     ... operative
CIS-Integral strategy          ... AO-integrals
Integral handling              ... AO integral Direct
Max. core memory used          ... 512 MB
Reference state                ... RHF
Generation of triplets         ... off
Follow IRoot                   ... off
Number of operators            ... 1
Orbital ranges used for CIS calculation:
 Operator 0:  Orbitals   4... 14  to  15... 43
XAS localization array:
 Operator 0:  Orbitals  -1... -1

-------------------
XC-INTEGRATION GRID
-------------------

General Integration Accuracy     IntAcc      ... 3.467
Radial Grid Type                 RadialGrid  ... OptM3 with GC (2021)
Angular Grid (max. ang.)         AngularGrid ... 1 (Lebedev-50)
Angular grid pruning method      GridPruning ... 4 (adaptive)
Weight generation scheme         WeightScheme... Becke
Basis function cutoff            BFCut       ... 1.0000e-11
Integration weight cutoff        WCut        ... 1.0000e-14
Angular grids for H and He will be reduced by one unit
Partially contracted basis set               ... off
Rotationally invariant grid construction     ... off

Total number of grid points                  ...     5479
Total number of batches                      ...       91
Average number of points per batch           ...       60
Average number of grid points per atom       ...      685

---------------------
COSX-INTEGRATION GRID
---------------------

General Integration Accuracy     IntAcc      ... 3.067
Radial Grid Type                 RadialGrid  ... OptM3 with GC (2021)
Angular Grid (max. ang.)         AngularGrid ... 1 (Lebedev-50)
Angular grid pruning method      GridPruning ... 4 (adaptive)
Weight generation scheme         WeightScheme... Becke
Basis function cutoff            BFCut       ... 1.0000e-11
Integration weight cutoff        WCut        ... 1.0000e-14
Angular grids for H and He will be reduced by one unit
Partially contracted basis set               ... on
Rotationally invariant grid construction     ... off

Total number of grid points                  ...     2502
Total number of batches                      ...       45
Average number of points per batch           ...       55
Average number of grid points per atom       ...      313

---------------
TD-DFT XC SETUP
---------------

DFT calculation                         ... on
Name of the grid file                   ... acrolien.622.grid_cis.tmp
Exchange functional (TD-DFT)            ... WB88
Correlation functional (TD-DFT)         ... LYP
 LDA part of GGA corr.  LDAOpt (TD-DFT) ... VWN-5
Hybrid DFT                              ... on
   Exchange mixing (TD-DFT)             ...  0.190
   GGA exch. scaling (TD-DFT)           ...  0.350
   GGA corr. scaling (TD-DFT)           ...  0.810
Range-Separated Exchange                ... on
   Range Range separation parameter mu  .... 0.330
   Max. amount of RS exchange (TD-DFT)  ...  0.460

Building densities             ... done
Calculating rho(r) on the grid ... done
Building xc-kernel on the grid ... done
                    *** TD-DFT CALCULATION INITIALIZED ***

------------------------
DAVIDSON-DIAGONALIZATION
------------------------

Dimension of the eigenvalue problem            ...    319
Number of roots to be determined               ...      1
Maximum size of the expansion space            ...     10
Maximum number of iterations                   ...    100
Convergence tolerance for the residual         ...    2.500e-07
Convergence tolerance for the energies         ...    2.500e-07
Orthogonality tolerance                        ...    1.000e-14
Level Shift                                    ...    0.000e+00
Constructing the preconditioner                ... o.k.
Building the initial guess                     ... o.k.
Number of trial vectors determined             ...     10


                       ****Iteration    0****

   Memory handling for direct AO based CIS:
   Memory per vector needed      ...     1 MB
   Memory needed                 ...     0 MB
   Memory available              ...   512 MB
   Number of vectors per batch   ...   512
   Number of batches             ...     1
   Time for densities:            0.000
   Time for RI-J (Direct):        0.043
   Time for K (COSX):             0.250
   Time for XC-Integration:       0.037
   Time for Sigma-Completion:     0.000
   Size of expansion space: 3
   Lowest Energy          :     0.144022207099
   Maximum Energy change  :     0.144022207099 (vector 0)
   Maximum residual norm  :     0.001881619977

                       ****Iteration    1****
   Time for densities:            0.000
   Time for RI-J (Direct):        0.033
   Time for K (COSX):             0.239
   Time for XC-Integration:       0.022
   Time for Sigma-Completion:     0.000
   Size of expansion space: 4
   Lowest Energy          :     0.140330465080
   Maximum Energy change  :     0.003691742019 (vector 0)
   Maximum residual norm  :     0.000605956378

                       ****Iteration    2****
   Time for densities:            0.000
   Time for RI-J (Direct):        0.033
   Time for K (COSX):             0.241
   Time for XC-Integration:       0.022
   Time for Sigma-Completion:     0.000
   Size of expansion space: 5
   Lowest Energy          :     0.139768201057
   Maximum Energy change  :     0.000562264023 (vector 0)
   Maximum residual norm  :     0.000022888507

                       ****Iteration    3****
   Time for densities:            0.000
   Time for RI-J (Direct):        0.034
   Time for K (COSX):             0.240
   Time for XC-Integration:       0.022
   Time for Sigma-Completion:     0.000
   Size of expansion space: 6
   Lowest Energy          :     0.139722503264
   Maximum Energy change  :     0.000045697793 (vector 0)
   Maximum residual norm  :     0.000002340041

                       ****Iteration    4****
   Time for densities:            0.000
   Time for RI-J (Direct):        0.033
   Time for K (COSX):             0.240
   Time for XC-Integration:       0.022
   Time for Sigma-Completion:     0.000
   Size of expansion space: 7
   Lowest Energy          :     0.139719247136
   Maximum Energy change  :     0.000003256128 (vector 0)
   Maximum residual norm  :     0.000000178899

      *** CONVERGENCE OF RESIDUAL NORM REACHED ***

Storing the converged CI vectors               ... acrolien.622.cis1

                 *** DAVIDSON DONE ***

Total time for solving the CIS problem:     1.520sec

------------------------------------
TD-DFT/TDA EXCITED STATES (SINGLETS)
------------------------------------

the weight of the individual excitations are printed if larger than 1.0e-02

STATE  1:  E=   0.139719 au      3.802 eV    30664.8 cm**-1 <S**2> =   0.000000
    14a ->  15a  :     0.919796 (c= -0.95905993)
    14a ->  16a  :     0.064835 (c=  0.25462629)


-----------------------------
TD-DFT/TDA-EXCITATION SPECTRA
-----------------------------

Center of mass = ( -0.9765, -0.3197, -0.4254)
Calculating the Dipole integrals                  ... done
Transforming integrals                            ... done
Calculating the Linear Momentum integrals         ... done
Transforming integrals                            ... done
Calculating angular momentum integrals            ... done
Transforming integrals                            ... done

-----------------------------------------------------------------------------
         ABSORPTION SPECTRUM VIA TRANSITION ELECTRIC DIPOLE MOMENTS
-----------------------------------------------------------------------------
State   Energy    Wavelength  fosc         T2        TX        TY        TZ  
        (cm-1)      (nm)                 (au**2)    (au)      (au)      (au) 
-----------------------------------------------------------------------------
   1   30664.8    326.1   0.000138060   0.00148  -0.03766   0.00719   0.00347

-----------------------------------------------------------------------------
         ABSORPTION SPECTRUM VIA TRANSITION VELOCITY DIPOLE MOMENTS
-----------------------------------------------------------------------------
State   Energy    Wavelength   fosc        P2         PX        PY        PZ  
        (cm-1)      (nm)                 (au**2)     (au)      (au)      (au) 
-----------------------------------------------------------------------------
   1   30664.8    326.1   0.000418026   0.00009  -0.00555  -0.00203  -0.00726

-------------------------------------------------------------------
                             CD SPECTRUM
-------------------------------------------------------------------
State  Energy     Wavelength     R         MX        MY        MZ   
       (cm-1)       (nm)     (1e40*cgs)   (au)      (au)      (au)  
-------------------------------------------------------------------
   1   30664.8    326.1      5.19472  -0.35259  -0.18937  -0.25920

-------------------------------------------------------------------
         CD SPECTRUM VIA TRANSITION VELOCITY DIPOLE MOMENTS        
-------------------------------------------------------------------
State  Energy     Wavelength     R         MX        MY        MZ   
       (cm-1)       (nm)     (1e40*cgs)   (au)      (au)      (au)  
-------------------------------------------------------------------
   1   30664.8    326.1     14.24929  -0.35259  -0.18937  -0.25920

Total run time:        2.122 sec

           *** ORCA-CIS/TD-DFT FINISHED WITHOUT ERROR ***

Maximum memory used throughout the entire CIS-calculation: 44.1 MB

-----------------------
CIS/TD-DFT TOTAL ENERGY
-----------------------

    E(SCF)  =   -191.736120380 Eh
    DE(CIS) =      0.139719247 Eh (Root  1)
    ----------------------------- ---------
    E(tot)  =   -191.596401133 Eh


-------------------------   --------------------
FINAL SINGLE POINT ENERGY      -191.596401132660
-------------------------   --------------------


                            ***************************************
                            *     ORCA property calculations      *
                            ***************************************

                                    ---------------------
                                    Active property flags
                                    ---------------------
   (+) Dipole Moment


------------------------------------------------------------------------------
                       ORCA ELECTRIC PROPERTIES CALCULATION
------------------------------------------------------------------------------

Dipole Moment Calculation                       ... on
Quadrupole Moment Calculation                   ... off
Polarizability Calculation                      ... off
GBWName                                         ... acrolien.622.gbw
Electron density                                ... acrolien.622.scfp
The origin for moment calculation is the CENTER OF MASS  = (-0.976481, -0.319712 -0.425380)

-------------
DIPOLE MOMENT
-------------
                                X             Y             Z
Electronic contribution:     -2.65633      -0.73540      -1.07674
Nuclear contribution   :      3.63142       1.17679       1.64728
                        -----------------------------------------
Total Dipole Moment    :      0.97509       0.44139       0.57055
                        -----------------------------------------
Magnitude (a.u.)       :      1.21291
Magnitude (Debye)      :      3.08297



--------------------
Rotational spectrum 
--------------------
 
Rotational constants in cm-1:     1.419511     0.152075     0.143355 
Rotational constants in MHz : 42555.854438  4559.083267  4297.675066 

 Dipole components along the rotational axes: 
x,y,z [a.u.] :    -1.153004    -0.205605     0.315371 
x,y,z [Debye]:    -2.930704    -0.522607     0.801609 

 

Timings for individual modules:

Sum of individual times         ...       37.281 sec (=   0.621 min)
GTO integral calculation        ...        0.323 sec (=   0.005 min)   0.9 %
SCF iterations                  ...       34.792 sec (=   0.580 min)  93.3 %
CIS module                      ...        2.166 sec (=   0.036 min)   5.8 %
                             ****ORCA TERMINATED NORMALLY****
TOTAL RUN TIME: 0 days 0 hours 0 minutes 37 seconds 460 msec
