
                                 *****************
                                 * O   R   C   A *
                                 *****************

                                            #,                                       
                                            ###                                      
                                            ####                                     
                                            #####                                    
                                            ######                                   
                                           ########,                                 
                                     ,,################,,,,,                         
                               ,,#################################,,                 
                          ,,##########################################,,             
                       ,#########################################, ''#####,          
                    ,#############################################,,   '####,        
                  ,##################################################,,,,####,       
                ,###########''''           ''''###############################       
              ,#####''   ,,,,##########,,,,          '''####'''          '####       
            ,##' ,,,,###########################,,,                        '##       
           ' ,,###''''                  '''############,,,                           
         ,,##''                                '''############,,,,        ,,,,,,###''
      ,#''                                            '''#######################'''  
     '                                                          ''''####''''         
             ,#######,   #######,   ,#######,      ##                                
            ,#'     '#,  ##    ##  ,#'     '#,    #''#        ######   ,####,        
            ##       ##  ##   ,#'  ##            #'  '#       #        #'  '#        
            ##       ##  #######   ##           ,######,      #####,   #    #        
            '#,     ,#'  ##    ##  '#,     ,#' ,#      #,         ##   #,  ,#        
             '#######'   ##     ##  '#######'  #'      '#     #####' # '####'        



                  #######################################################
                  #                        -***-                        #
                  #          Department of theory and spectroscopy      #
                  #    Directorship and core code : Frank Neese         #
                  #        Max Planck Institute fuer Kohlenforschung    #
                  #                Kaiser Wilhelm Platz 1               #
                  #                 D-45470 Muelheim/Ruhr               #
                  #                      Germany                        #
                  #                                                     #
                  #                  All rights reserved                #
                  #                        -***-                        #
                  #######################################################


                         Program Version 5.0.3 -  RELEASE  -


 With contributions from (in alphabetic order):
   Daniel Aravena         : Magnetic Suceptibility
   Michael Atanasov       : Ab Initio Ligand Field Theory (pilot matlab implementation)
   Alexander A. Auer      : GIAO ZORA, VPT2 properties, NMR spectrum
   Ute Becker             : Parallelization
   Giovanni Bistoni       : ED, misc. LED, open-shell LED, HFLD
   Martin Brehm           : Molecular dynamics
   Dmytro Bykov           : SCF Hessian
   Vijay G. Chilkuri      : MRCI spin determinant printing, contributions to CSF-ICE
   Dipayan Datta          : RHF DLPNO-CCSD density
   Achintya Kumar Dutta   : EOM-CC, STEOM-CC
   Dmitry Ganyushin       : Spin-Orbit,Spin-Spin,Magnetic field MRCI
   Miquel Garcia          : C-PCM and meta-GGA Hessian, CC/C-PCM, Gaussian charge scheme
   Yang Guo               : DLPNO-NEVPT2, F12-NEVPT2, CIM, IAO-localization
   Andreas Hansen         : Spin unrestricted coupled pair/coupled cluster methods
   Benjamin Helmich-Paris : MC-RPA, TRAH-SCF, COSX integrals
   Lee Huntington         : MR-EOM, pCC
   Robert Izsak           : Overlap fitted RIJCOSX, COSX-SCS-MP3, EOM
   Marcus Kettner         : VPT2
   Christian Kollmar      : KDIIS, OOCD, Brueckner-CCSD(T), CCSD density, CASPT2, CASPT2-K
   Simone Kossmann        : Meta GGA functionals, TD-DFT gradient, OOMP2, MP2 Hessian
   Martin Krupicka        : Initial AUTO-CI
   Lucas Lang             : DCDCAS
   Marvin Lechner         : AUTO-CI (C++ implementation), FIC-MRCC
   Dagmar Lenk            : GEPOL surface, SMD
   Dimitrios Liakos       : Extrapolation schemes; Compound Job, initial MDCI parallelization
   Dimitrios Manganas     : Further ROCIS development; embedding schemes
   Dimitrios Pantazis     : SARC Basis sets
   Anastasios Papadopoulos: AUTO-CI, single reference methods and gradients
   Taras Petrenko         : DFT Hessian,TD-DFT gradient, ASA, ECA, R-Raman, ABS, FL, XAS/XES, NRVS
   Peter Pinski           : DLPNO-MP2, DLPNO-MP2 Gradient
   Christoph Reimann      : Effective Core Potentials
   Marius Retegan         : Local ZFS, SOC
   Christoph Riplinger    : Optimizer, TS searches, QM/MM, DLPNO-CCSD(T), (RO)-DLPNO pert. Triples
   Tobias Risthaus        : Range-separated hybrids, TD-DFT gradient, RPA, STAB
   Michael Roemelt        : Original ROCIS implementation
   Masaaki Saitow         : Open-shell DLPNO-CCSD energy and density
   Barbara Sandhoefer     : DKH picture change effects
   Avijit Sen             : IP-ROCIS
   Kantharuban Sivalingam : CASSCF convergence, NEVPT2, FIC-MRCI
   Bernardo de Souza      : ESD, SOC TD-DFT
   Georgi Stoychev        : AutoAux, RI-MP2 NMR, DLPNO-MP2 response
   Willem Van den Heuvel  : Paramagnetic NMR
   Boris Wezisla          : Elementary symmetry handling
   Frank Wennmohs         : Technical directorship


 We gratefully acknowledge several colleagues who have allowed us to
 interface, adapt or use parts of their codes:
   Stefan Grimme, W. Hujo, H. Kruse, P. Pracht,  : VdW corrections, initial TS optimization,
                  C. Bannwarth, S. Ehlert          DFT functionals, gCP, sTDA/sTD-DF
   Ed Valeev, F. Pavosevic, A. Kumar             : LibInt (2-el integral package), F12 methods
   Garnet Chan, S. Sharma, J. Yang, R. Olivares  : DMRG
   Ulf Ekstrom                                   : XCFun DFT Library
   Mihaly Kallay                                 : mrcc  (arbitrary order and MRCC methods)
   Jiri Pittner, Ondrej Demel                    : Mk-CCSD
   Frank Weinhold                                : gennbo (NPA and NBO analysis)
   Christopher J. Cramer and Donald G. Truhlar   : smd solvation model
   Lars Goerigk                                  : TD-DFT with DH, B97 family of functionals
   V. Asgeirsson, H. Jonsson                     : NEB implementation
   FAccTs GmbH                                   : IRC, NEB, NEB-TS, DLPNO-Multilevel, CI-OPT
                                                   MM, QMMM, 2- and 3-layer-ONIOM, Crystal-QMMM,
                                                   LR-CPCM, SF, NACMEs, symmetry and pop. for TD-DFT,
                                                   nearIR, NL-DFT gradient (VV10), updates on ESD,
                                                   ML-optimized integration grids
   S Lehtola, MJT Oliveira, MAL Marques          : LibXC Library
   Liviu Ungur et al                             : ANISO software


 Your calculation uses the libint2 library for the computation of 2-el integrals
 For citations please refer to: http://libint.valeyev.net

 Your ORCA version has been built with support for libXC version: 5.1.0
 For citations please refer to: https://tddft.org/programs/libxc/

 This ORCA versions uses:
   CBLAS   interface :  Fast vector & matrix operations
   LAPACKE interface :  Fast linear algebra routines
   SCALAPACK package :  Parallel linear algebra routines
   Shared memory     :  Shared parallel matrices
   BLAS/LAPACK       :  OpenBLAS 0.3.15  USE64BITINT DYNAMIC_ARCH NO_AFFINITY Haswell SINGLE_THREADED
        Core in use  :  Haswell
   Copyright (c) 2011-2014, The OpenBLAS Project


Your calculation utilizes the geometrical counterpoise correction gCP
Please cite in your paper:
H.Kruse, S. Grimme J.Chem.Phys., 136, (2012), 154101 
   

Your calculation utilizes the atom-pairwise dispersion correction
with the Becke-Johnson damping scheme (D3BJ)
Cite in your paper:
S.Grimme, S.Ehrlich, L.Goerigk, J Comput Chem, (2011), 32, 1456–1465 
S.Grimme, J.Antony, S.Ehrlich and H.Krieg, J.Chem.Phys., 132, (2010), 154104 
   

================================================================================

----- Orbital basis set information -----
Your calculation utilizes the basis: MINIX,
   a combination of small basis sets by S. Grimme (see manual for definitions).

================================================================================
                                        WARNINGS
                       Please study these warnings very carefully!
================================================================================

INFO   : Checking CIS options ...

INFO   : the flag for use of the SHARK integral package has been found!

================================================================================
                                       INPUT FILE
================================================================================
NAME = acrolien.472.com
|  1> ! HF-3c
|  2> !TightSCF
|  3> %scf
|  4>  ConvForced true
|  5>  convergence tight
|  6>  MaxIter 500
|  7> end
|  8>  
|  9> %tddft 
| 10>  nroots 1
| 11> end
| 12> 
| 13> # 	84
| 14> * xyz 0 1
| 15> 		C   -1.143286  -0.358544  -0.028299
| 16> 		O   -1.382068  -1.511844  -0.393478
| 17> 		C    0.033690   0.455981  -0.188210
| 18> 		C    1.203189  -0.033768   0.085924
| 19> 		H   -1.858871   0.314087   0.597404
| 20> 		H   -0.099500   1.483207  -0.472669
| 21> 		H    1.284611  -1.072945   0.364221
| 22> 		H    1.933716   0.676616   0.043306
| 23> *
| 24> 
| 25>                          ****END OF INPUT****
================================================================================

                       ****************************
                       * Single Point Calculation *
                       ****************************

---------------------------------
CARTESIAN COORDINATES (ANGSTROEM)
---------------------------------
  C     -1.143286   -0.358544   -0.028299
  O     -1.382068   -1.511844   -0.393478
  C      0.033690    0.455981   -0.188210
  C      1.203189   -0.033768    0.085924
  H     -1.858871    0.314087    0.597404
  H     -0.099500    1.483207   -0.472669
  H      1.284611   -1.072945    0.364221
  H      1.933716    0.676616    0.043306

----------------------------
CARTESIAN COORDINATES (A.U.)
----------------------------
  NO LB      ZA    FRAG     MASS         X           Y           Z
   0 C     6.0000    0    12.011   -2.160497   -0.677550   -0.053477
   1 O     8.0000    0    15.999   -2.611730   -2.856971   -0.743566
   2 C     6.0000    0    12.011    0.063665    0.861679   -0.355665
   3 C     6.0000    0    12.011    2.273698   -0.063812    0.162373
   4 H     1.0000    0     1.008   -3.512757    0.593538    1.128930
   5 H     1.0000    0     1.008   -0.188028    2.802855   -0.893215
   6 H     1.0000    0     1.008    2.427563   -2.027572    0.688278
   7 H     1.0000    0     1.008    3.654194    1.278619    0.081836

--------------------------------
INTERNAL COORDINATES (ANGSTROEM)
--------------------------------
 C      0   0   0     0.000000000000     0.00000000     0.00000000
 O      1   0   0     1.233074789121     0.00000000     0.00000000
 C      1   2   0     1.440241302047   130.86865595     0.00000000
 C      3   1   2     1.297201389129   119.98515997   312.55409705
 H      1   2   3     1.164473528508   125.47788008   183.06223284
 H      3   1   2     1.074173986772   117.96320805   136.58446698
 H      4   3   1     1.078873301005   119.09135086     4.35759236
 H      4   3   1     1.019868334203   111.96089477   187.16793868

---------------------------
INTERNAL COORDINATES (A.U.)
---------------------------
 C      0   0   0     0.000000000000     0.00000000     0.00000000
 O      1   0   0     2.330173654081     0.00000000     0.00000000
 C      1   2   0     2.721661627631   130.86865595     0.00000000
 C      3   1   2     2.451355365996   119.98515997   312.55409705
 H      1   2   3     2.200536059080   125.47788008   183.06223284
 H      3   1   2     2.029894655181   117.96320805   136.58446698
 H      4   3   1     2.038775072100   119.09135086     4.35759236
 H      4   3   1     1.927271844301   111.96089477   187.16793868

---------------------
BASIS SET INFORMATION
---------------------
There are 3 groups of distinct atoms

 Group   1 Type C   : 6s3p contracted to 2s1p pattern {33/3}
 Group   2 Type O   : 6s3p contracted to 2s1p pattern {33/3}
 Group   3 Type H   : 3s contracted to 1s pattern {3}

Atom   0C    basis set group =>   1
Atom   1O    basis set group =>   2
Atom   2C    basis set group =>   1
Atom   3C    basis set group =>   1
Atom   4H    basis set group =>   3
Atom   5H    basis set group =>   3
Atom   6H    basis set group =>   3
Atom   7H    basis set group =>   3
------------------------------------------------------------------------------
                           ORCA GTO INTEGRAL CALCULATION
------------------------------------------------------------------------------
------------------------------------------------------------------------------
                   ___                                                        
                  /   \      - P O W E R E D   B Y -                         
                 /     \                                                     
                 |  |  |   _    _      __       _____    __    __             
                 |  |  |  | |  | |    /  \     |  _  \  |  |  /  |          
                  \  \/   | |  | |   /    \    | | | |  |  | /  /          
                 / \  \   | |__| |  /  /\  \   | |_| |  |  |/  /          
                |  |  |   |  __  | /  /__\  \  |    /   |      \           
                |  |  |   | |  | | |   __   |  |    \   |  |\   \          
                \     /   | |  | | |  |  |  |  | |\  \  |  | \   \       
                 \___/    |_|  |_| |__|  |__|  |_| \__\ |__|  \__/        
                                                                              
                      - O R C A' S   B I G   F R I E N D -                    
                                      &                                       
                       - I N T E G R A L  F E E D E R -                       
                                                                              
 v1 FN, 2020, v2 2021                                                         
------------------------------------------------------------------------------


Reading SHARK input file acrolien.472.SHARKINP.tmp ... ok
----------------------
SHARK INTEGRAL PACKAGE
----------------------

Number of atoms                             ...      8
Number of basis functions                   ...     24
Number of shells                            ...     16
Maximum angular momentum                    ...      1
Integral batch strategy                     ... SHARK/LIBINT Hybrid
RI-J (if used) integral strategy            ... SPLIT-RIJ (Revised 2003 algorithm where possible)
Printlevel                                  ...      1
Contraction scheme used                     ... SEGMENTED contraction
Coulomb Range Separation                    ... NOT USED
Exchange Range Separation                   ... NOT USED
Finite Nucleus Model                        ... NOT USED
Auxiliary Coulomb fitting basis             ... NOT available
Auxiliary J/K fitting basis                 ... NOT available
Auxiliary Correlation fitting basis         ... NOT available
Auxiliary 'external' fitting basis          ... NOT available
Integral threshold                          ...     2.500000e-11
Primitive cut-off                           ...     2.500000e-12
Primitive pair pre-selection threshold      ...     2.500000e-12

Calculating pre-screening integrals         ... done (  0.0 sec) Dimension = 16
Organizing shell pair data                  ... done (  0.0 sec)
Shell pair information
Total number of shell pairs                 ...       136
Shell pairs after pre-screening             ...       133
Total number of primitive shell pairs       ...      1224
Primitive shell pairs kept                  ...      1000
          la=0 lb=0:     75 shell pairs
          la=1 lb=0:     48 shell pairs
          la=1 lb=1:     10 shell pairs

Calculating one electron integrals          ... done (  0.0 sec)
Calculating Nuclear repulsion               ... done (  0.0 sec) ENN=    105.174835150928 Eh
Calculating 4-index integrals               ... 
    -> SHARK/Ints2Disk: Thresh =     2.500000e-11 TCut=    2.500000e-12 
    -> calling libint FockFlag=2 Lmax_loc=1
    ->Total LIBINT loop time =    0.000 sec
    -> L=0 0 0 0:     0.003 sec done=      2830 (=100.0%) skipped=         0 
    -> L=1 0 0 0:     0.007 sec done=      3597 (=100.0%) skipped=         0 
    -> L=1 0 1 0:     0.004 sec done=      1176 (=100.0%) skipped=         0 
    -> L=1 1 0 0:     0.003 sec done=       750 (=100.0%) skipped=         0 
    -> L=1 1 1 0:     0.004 sec done=       480 (=100.0%) skipped=         0 
    -> L=1 1 1 1:     0.001 sec done=        55 (=100.0%) skipped=         0 
    ->Total SHARK integral loop time =    0.022 sec
    -> Total Integral generation matrix time =    0.029 sec
    -> Number of small integrals   =       506
    -> Number of medium integrals  =      1768
    -> Number of large integrals   =     41545
    -> Number of MB stored         =         0 MB


SHARK setup successfully completed in   0.1 seconds

Maximum memory used throughout the entire GTOINT-calculation: 29.5 MB
-------------------------------------------------------------------------------
                                 ORCA SCF
-------------------------------------------------------------------------------

------------
SCF SETTINGS
------------
Hamiltonian:
 Ab initio Hamiltonian  Method          .... Hartree-Fock(GTOs)


General Settings:
 Integral files         IntName         .... acrolien.472
 Hartree-Fock type      HFTyp           .... RHF
 Total Charge           Charge          ....    0
 Multiplicity           Mult            ....    1
 Number of Electrons    NEL             ....   30
 Basis Dimension        Dim             ....   24
 Nuclear Repulsion      ENuc            ....    105.1748351509 Eh

Convergence Acceleration:
 DIIS                   CNVDIIS         .... on
   Start iteration      DIISMaxIt       ....    12
   Startup error        DIISStart       ....  0.200000
   # of expansion vecs  DIISMaxEq       ....     5
   Bias factor          DIISBfac        ....   1.050
   Max. coefficient     DIISMaxC        ....  10.000
 Trust-Rad. Augm. Hess. CNVTRAH         .... auto
   Auto Start mean grad. ratio tolernc. ....  1.125000
   Auto Start start iteration           ....    20
   Auto Start num. interpolation iter.  ....    10
   Max. Number of Micro iterations      ....    16
   Max. Number of Macro iterations      .... Maxiter - #DIIS iter
   Number of Davidson start vectors     ....     2
   Converg. threshold I  (grad. norm)   ....   1.000e-05
   Converg. threshold II (energy diff.) ....   1.000e-08
   Grad. Scal. Fac. for Micro threshold ....   0.100
   Minimum threshold for Micro iter.    ....   0.010
   NR start threshold (gradient norm)   ....   0.001
   Initial trust radius                 ....   0.400
   Minimum AH scaling param. (alpha)    ....   1.000
   Maximum AH scaling param. (alpha)    .... 1000.000
   Orbital update algorithm             .... Taylor
   White noise on init. David. guess    .... on
   Maximum white noise                  ....   0.010
   Quad. conv. algorithm                .... NR
 SOSCF                  CNVSOSCF        .... on
   Start iteration      SOSCFMaxIt      ....   150
   Startup grad/error   SOSCFStart      ....  0.003300
 Level Shifting         CNVShift        .... on
   Level shift para.    LevelShift      ....    0.2500
   Turn off err/grad.   ShiftErr        ....    0.0010
 Zerner damping         CNVZerner       .... off
 Static damping         CNVDamp         .... on
   Fraction old density DampFac         ....    0.7000
   Max. Damping (<1)    DampMax         ....    0.9800
   Min. Damping (>=0)   DampMin         ....    0.0000
   Turn off err/grad.   DampErr         ....    0.1000
 Fernandez-Rico         CNVRico         .... off

SCF Procedure:
 Maximum # iterations   MaxIter         ....   500
 SCF integral mode      SCFMode         .... Conventional
 Integral Threshold     Thresh          ....  2.500e-11 Eh
 Primitive CutOff       TCut            ....  2.500e-12 Eh
 Integral Buffer length BufferLength    .... 1048576
 Integral index format  IndFormat       ....     0
 Integral value format  ValFormat       ....     0
 Integral Storage       Thresh          ....  2.500e-11 Eh

Convergence Tolerance:
 Convergence Check Mode ConvCheckMode   .... Total+1el-Energy
 Convergence forced     ConvForced      .... 1
 Energy Change          TolE            ....  1.000e-08 Eh
 1-El. energy change                    ....  1.000e-05 Eh
 Orbital Gradient       TolG            ....  1.000e-05
 Orbital Rotation angle TolX            ....  1.000e-05
 DIIS Error             TolErr          ....  5.000e-07


Diagonalization of the overlap matrix:
Smallest eigenvalue                        ... 1.644e-01
Time for diagonalization                   ...    0.000 sec
Threshold for overlap eigenvalues          ... 1.000e-08
Number of eigenvalues below threshold      ... 0
Time for construction of square roots      ...    0.001 sec
Total time needed                          ...    0.001 sec

--------------------------------
INITIAL GUESS: MINIMAL BASIS EHT
--------------------------------
The minimal basis has 24 functions
EHT matrix was diagonalized
Basis set overlap was calculated now projecting the orbitals
Using GuessMode=FMatrix for the initial guess
C*T matrix was formed
Effective Fockian was calculated
Effective Fockian was diagonalized
Initial density was built
                      ------------------
                      INITIAL GUESS DONE
                      ------------------

 InCore treatment chosen:
   Memory dedicated               ...    1024 MB
   Memory needed                  ...      0 MB
   Number of tiny    integrals    ...     506
   Number of small   integrals    ...    1768
   Number of regular integrals    ...   41545

--------------
SCF ITERATIONS
--------------
ITER       Energy         Delta-E        Max-DP      RMS-DP      [F,P]     Damp
  0   -188.9762456992   0.000000000000 0.15132158  0.01548347  0.2650780 0.7000
  1   -189.1139113500  -0.137665650789 0.11705191  0.01221262  0.1915106 0.7000
                               ***Turning on DIIS***
  2   -189.2016285666  -0.087717216666 0.07270130  0.00775834  0.1373536 0.7000
  3   -189.2572423505  -0.055613783869 0.11713125  0.01493496  0.0984632 0.0000
  4   -189.3962373808  -0.138995030317 0.01633576  0.00183957  0.0067324 0.0000
  5   -189.3952244111   0.001012969727 0.00779305  0.00085854  0.0046183 0.0000
                      *** Initiating the SOSCF procedure ***
                           *** Shutting down DIIS ***
                      *** Re-Reading the Fockian *** 
                      *** Removing any level shift *** 
ITER      Energy       Delta-E        Grad      Rot      Max-DP    RMS-DP
  6   -189.39599885  -0.0007744426  0.001094  0.001094  0.002616  0.000388
  7   -189.39768503  -0.0016861746  0.000500  0.000910  0.001177  0.000165
  8   -189.39769030  -0.0000052739  0.000322  0.001486  0.001890  0.000258
  9   -189.39769344  -0.0000031423  0.000118  0.000309  0.000497  0.000048
 10   -189.39769369  -0.0000002412  0.000084  0.000278  0.000622  0.000054
 11   -189.39769382  -0.0000001358  0.000017  0.000038  0.000083  0.000010
 12   -189.39769383  -0.0000000094  0.000011  0.000019  0.000047  0.000005
                 **** Energy Check signals convergence ****
              ***Rediagonalizing the Fockian in SOSCF/NRSCF***

               *****************************************************
               *                     SUCCESS                       *
               *           SCF CONVERGED AFTER  13 CYCLES          *
               *****************************************************


----------------
TOTAL SCF ENERGY
----------------

Total Energy       :         -189.39769383 Eh           -5153.77326 eV

Components:
Nuclear Repulsion  :          105.17483515 Eh            2861.95276 eV
Electronic Energy  :         -294.57252898 Eh           -8015.72603 eV
One Electron Energy:         -465.07052791 Eh          -12655.21244 eV
Two Electron Energy:          170.49799893 Eh            4639.48642 eV

Virial components:
Potential Energy   :         -378.61815889 Eh          -10302.72388 eV
Kinetic Energy     :          189.22046505 Eh            5148.95062 eV
Virial Ratio       :            2.00093663


---------------
SCF CONVERGENCE
---------------

  Last Energy change         ...   -1.7391e-09  Tolerance :   1.0000e-08
  Last MAX-Density change    ...    1.1305e-05  Tolerance :   1.0000e-07
  Last RMS-Density change    ...    1.2420e-06  Tolerance :   5.0000e-09
  Last Orbital Gradient      ...    3.3388e-06  Tolerance :   1.0000e-05
  Last Orbital Rotation      ...    8.4055e-06  Tolerance :   1.0000e-05

             **** THE GBW FILE WAS UPDATED (acrolien.472.gbw) ****
             **** DENSITY acrolien.472.scfp WAS UPDATED ****
             **** ENERGY FILE WAS UPDATED (acrolien.472.en.tmp) ****
             **** THE GBW FILE WAS UPDATED (acrolien.472.gbw) ****
             **** DENSITY acrolien.472.scfp WAS UPDATED ****
----------------
ORBITAL ENERGIES
----------------

  NO   OCC          E(Eh)            E(eV) 
   0   2.0000     -20.368104      -554.2443 
   1   2.0000     -11.293797      -307.3198 
   2   2.0000     -11.196485      -304.6719 
   3   2.0000     -11.192771      -304.5708 
   4   2.0000      -1.385811       -37.7098 
   5   2.0000      -1.112442       -30.2711 
   6   2.0000      -0.909464       -24.7478 
   7   2.0000      -0.745793       -20.2941 
   8   2.0000      -0.709028       -19.2936 
   9   2.0000      -0.615736       -16.7550 
  10   2.0000      -0.613886       -16.7047 
  11   2.0000      -0.561924       -15.2907 
  12   2.0000      -0.510950       -13.9037 
  13   2.0000      -0.418223       -11.3804 
  14   2.0000      -0.402847       -10.9620 
  15   0.0000       0.147479         4.0131 
  16   0.0000       0.273058         7.4303 
  17   0.0000       0.572053        15.5664 
  18   0.0000       0.622522        16.9397 
  19   0.0000       0.641976        17.4691 
  20   0.0000       0.695425        18.9235 
  21   0.0000       0.867106        23.5952 
  22   0.0000       0.991001        26.9665 
  23   0.0000       1.031816        28.0771 

                    ********************************
                    * MULLIKEN POPULATION ANALYSIS *
                    ********************************

-----------------------
MULLIKEN ATOMIC CHARGES
-----------------------
   0 C :    0.176906
   1 O :   -0.346852
   2 C :   -0.175165
   3 C :   -0.246456
   4 H :    0.128812
   5 H :    0.150592
   6 H :    0.162158
   7 H :    0.150004
Sum of atomic charges:    0.0000000

--------------------------------
MULLIKEN REDUCED ORBITAL CHARGES
--------------------------------
  0 C s       :     3.058957  s :     3.058957
      pz      :     0.894616  p :     2.764137
      px      :     1.010450
      py      :     0.859071
  1 O s       :     3.842530  s :     3.842530
      pz      :     1.361194  p :     4.504322
      px      :     1.775606
      py      :     1.367522
  2 C s       :     3.067388  s :     3.067388
      pz      :     1.032897  p :     3.107777
      px      :     0.998057
      py      :     1.076823
  3 C s       :     3.123308  s :     3.123308
      pz      :     0.968968  p :     3.123148
      px      :     1.052460
      py      :     1.101719
  4 H s       :     0.871188  s :     0.871188
  5 H s       :     0.849408  s :     0.849408
  6 H s       :     0.837842  s :     0.837842
  7 H s       :     0.849996  s :     0.849996


                     *******************************
                     * LOEWDIN POPULATION ANALYSIS *
                     *******************************

----------------------
LOEWDIN ATOMIC CHARGES
----------------------
   0 C :    0.159191
   1 O :   -0.259384
   2 C :   -0.126585
   3 C :   -0.142846
   4 H :    0.072055
   5 H :    0.096353
   6 H :    0.107609
   7 H :    0.093607

-------------------------------
LOEWDIN REDUCED ORBITAL CHARGES
-------------------------------
  0 C s       :     2.983591  s :     2.983591
      pz      :     0.901600  p :     2.857218
      px      :     1.035002
      py      :     0.920616
  1 O s       :     3.717950  s :     3.717950
      pz      :     1.362857  p :     4.541434
      px      :     1.777856
      py      :     1.400721
  2 C s       :     2.952285  s :     2.952285
      pz      :     1.029824  p :     3.174300
      px      :     1.063129
      py      :     1.081348
  3 C s       :     2.981088  s :     2.981088
      pz      :     0.973411  p :     3.161758
      px      :     1.099041
      py      :     1.089306
  4 H s       :     0.927945  s :     0.927945
  5 H s       :     0.903647  s :     0.903647
  6 H s       :     0.892391  s :     0.892391
  7 H s       :     0.906393  s :     0.906393


                      *****************************
                      * MAYER POPULATION ANALYSIS *
                      *****************************

  NA   - Mulliken gross atomic population
  ZA   - Total nuclear charge
  QA   - Mulliken gross atomic charge
  VA   - Mayer's total valence
  BVA  - Mayer's bonded valence
  FA   - Mayer's free valence

  ATOM       NA         ZA         QA         VA         BVA        FA
  0 C      5.8231     6.0000     0.1769     3.8808     3.8808     0.0000
  1 O      8.3469     8.0000    -0.3469     2.0703     2.0703     0.0000
  2 C      6.1752     6.0000    -0.1752     3.9768     3.9768     0.0000
  3 C      6.2465     6.0000    -0.2465     3.9475     3.9475     0.0000
  4 H      0.8712     1.0000     0.1288     0.9834     0.9834     0.0000
  5 H      0.8494     1.0000     0.1506     0.9773     0.9773     0.0000
  6 H      0.8378     1.0000     0.1622     0.9737     0.9737     0.0000
  7 H      0.8500     1.0000     0.1500     0.9775     0.9775     0.0000

  Mayer bond orders larger than 0.100000
B(  0-C ,  1-O ) :   1.9261 B(  0-C ,  2-C ) :   1.0249 B(  0-C ,  4-H ) :   0.9104 
B(  2-C ,  3-C ) :   1.9575 B(  2-C ,  5-H ) :   0.9527 B(  3-C ,  6-H ) :   0.9596 
B(  3-C ,  7-H ) :   0.9638 

-------
TIMINGS
-------

Total SCF time: 0 days 0 hours 0 min 2 sec 

Total time                  ....       2.941 sec
Sum of individual times     ....       0.407 sec  ( 13.9%)

Fock matrix formation       ....       0.152 sec  (  5.2%)
Diagonalization             ....       0.002 sec  (  0.1%)
Density matrix formation    ....       0.000 sec  (  0.0%)
Population analysis         ....       0.007 sec  (  0.2%)
Initial guess               ....       0.014 sec  (  0.5%)
Orbital Transformation      ....       0.000 sec  (  0.0%)
Orbital Orthonormalization  ....       0.000 sec  (  0.0%)
DIIS solution               ....       0.083 sec  (  2.8%)
SOSCF solution              ....       0.149 sec  (  5.1%)

Maximum memory used throughout the entire SCF-calculation: 225.0 MB
------------------------------------------------------------------------------
                         ORCA CIS CALCULATION
------------------------------------------------------------------------------

Input orbitals are from        ... acrolien.472.gbw
CI-vector output               ... acrolien.472.cis
Tamm-Dancoff approximation     ... operative
CIS-Integral strategy          ... AO-integrals
Integral handling              ... AO integral Conventional
Reference state                ... RHF
Generation of triplets         ... off
Follow IRoot                   ... off
Number of operators            ... 1
Orbital ranges used for CIS calculation:
 Operator 0:  Orbitals   4... 14  to  15... 23
XAS localization array:
 Operator 0:  Orbitals  -1... -1

------------------------
DAVIDSON-DIAGONALIZATION
------------------------

Dimension of the eigenvalue problem            ...     99
Number of roots to be determined               ...      1
Maximum size of the expansion space            ...     10
Maximum number of iterations                   ...    100
Convergence tolerance for the residual         ...    2.500e-07
Convergence tolerance for the energies         ...    2.500e-07
Orthogonality tolerance                        ...    1.000e-14
Level Shift                                    ...    0.000e+00
Constructing the preconditioner                ... o.k.
Building the initial guess                     ... o.k.
Number of trial vectors determined             ...     10


                       ****Iteration    0****

   Memory handling for direct AO based CIS:
   Memory per vector needed      ...     1 MB
   Memory needed                 ...     0 MB
   Memory available              ...   512 MB
   Number of vectors per batch   ...   512
   Number of batches             ...     1
   Time for densities:            0.000
   SHARK[4]
   Time for Sigma-Completion:     0.000
   Size of expansion space: 3
   Lowest Energy          :     0.207850759909
   Maximum Energy change  :     0.207850759909 (vector 0)
   Maximum residual norm  :     0.014307523624

                       ****Iteration    1****
   Time for densities:            0.000
   SHARK[4]
   Time for Sigma-Completion:     0.000
   Size of expansion space: 4
   Lowest Energy          :     0.154589398068
   Maximum Energy change  :     0.053261361840 (vector 0)
   Maximum residual norm  :     0.001657984884

                       ****Iteration    2****
   Time for densities:            0.000
   SHARK[4]
   Time for Sigma-Completion:     0.000
   Size of expansion space: 5
   Lowest Energy          :     0.150141889418
   Maximum Energy change  :     0.004447508650 (vector 0)
   Maximum residual norm  :     0.000146036480

                       ****Iteration    3****
   Time for densities:            0.000
   SHARK[4]
   Time for Sigma-Completion:     0.000
   Size of expansion space: 6
   Lowest Energy          :     0.149926814093
   Maximum Energy change  :     0.000215075325 (vector 0)
   Maximum residual norm  :     0.000008078763

                       ****Iteration    4****
   Time for densities:            0.000
   SHARK[4]
   Time for Sigma-Completion:     0.000
   Size of expansion space: 7
   Lowest Energy          :     0.149913429142
   Maximum Energy change  :     0.000013384951 (vector 0)
   Maximum residual norm  :     0.000000534803

                       ****Iteration    5****
   Time for densities:            0.000
   SHARK[4]
   Time for Sigma-Completion:     0.000
   Size of expansion space: 8
   Lowest Energy          :     0.149912472403
   Maximum Energy change  :     0.000000956739 (vector 0)
   Maximum residual norm  :     0.000000039667

      *** CONVERGENCE OF RESIDUAL NORM REACHED ***

Storing the converged CI vectors               ... acrolien.472.cis1

                 *** DAVIDSON DONE ***

Total time for solving the CIS problem:     3.023sec

-----------------------------
CIS-EXCITED STATES (SINGLETS)
-----------------------------

the weight of the individual excitations are printed if larger than 1.0e-02

STATE  1:  E=   0.149912 au      4.079 eV    32902.0 cm**-1 <S**2> =   0.000000
    10a ->  15a  :     0.019112 (c=  0.13824751)
    11a ->  15a  :     0.011402 (c=  0.10678053)
    13a ->  15a  :     0.303120 (c= -0.55056372)
    13a ->  16a  :     0.066176 (c= -0.25724689)
    14a ->  15a  :     0.476906 (c=  0.69058412)
    14a ->  16a  :     0.093890 (c=  0.30641543)


----------------------
CIS-EXCITATION SPECTRA
----------------------

Center of mass = ( -0.6646, -0.7419, -0.2470)
Calculating the Dipole integrals                  ... done
Transforming integrals                            ... done
Calculating the Linear Momentum integrals         ... done
Transforming integrals                            ... done
Calculating angular momentum integrals            ... done
Transforming integrals                            ... done

-----------------------------------------------------------------------------
         ABSORPTION SPECTRUM VIA TRANSITION ELECTRIC DIPOLE MOMENTS
-----------------------------------------------------------------------------
State   Energy    Wavelength  fosc         T2        TX        TY        TZ  
        (cm-1)      (nm)                 (au**2)    (au)      (au)      (au) 
-----------------------------------------------------------------------------
   1   32902.0    303.9   0.000289206   0.00289   0.05340  -0.00027   0.00649

-----------------------------------------------------------------------------
         ABSORPTION SPECTRUM VIA TRANSITION VELOCITY DIPOLE MOMENTS
-----------------------------------------------------------------------------
State   Energy    Wavelength   fosc        P2         PX        PY        PZ  
        (cm-1)      (nm)                 (au**2)     (au)      (au)      (au) 
-----------------------------------------------------------------------------
   1   32902.0    303.9   0.000806236   0.00018  -0.00185   0.00519  -0.01229

-------------------------------------------------------------------
                             CD SPECTRUM
-------------------------------------------------------------------
State  Energy     Wavelength     R         MX        MY        MZ   
       (cm-1)       (nm)     (1e40*cgs)   (au)      (au)      (au)  
-------------------------------------------------------------------
   1   32902.0    303.9      3.85585   0.13401   0.46883   0.17717

-------------------------------------------------------------------
         CD SPECTRUM VIA TRANSITION VELOCITY DIPOLE MOMENTS        
-------------------------------------------------------------------
State  Energy     Wavelength     R         MX        MY        MZ   
       (cm-1)       (nm)     (1e40*cgs)   (au)      (au)      (au)  
-------------------------------------------------------------------
   1   32902.0    303.9      0.02209   0.13401   0.46883   0.17717

Total run time:        4.988 sec

           *** ORCA-CIS/TD-DFT FINISHED WITHOUT ERROR ***

Maximum memory used throughout the entire CIS-calculation: 51.7 MB

-----------------------
CIS/TD-DFT TOTAL ENERGY
-----------------------

    E(SCF)  =   -189.397693833 Eh
    DE(CIS) =      0.149912472 Eh (Root  1)
    ----------------------------- ---------
    E(tot)  =   -189.247781360 Eh



-------------------------------------------------------------------------------
                          DFT DISPERSION CORRECTION                            
                                                                               
                              DFTD3 V3.1  Rev 1                                
                          USING Becke-Johnson damping                          
-------------------------------------------------------------------------------
Hartree-Fock is recognized
Active option DFTDOPT                   ...         4   

molecular C6(AA) [au] = 660.175673 


            DFT-D V3
 parameters
 using HF/MINIX parameters
 s6 scaling factor         :     1.0000 
 a1 scaling factor         :     0.4171 
 s8 scaling factor         :     0.8777 
 a2 scaling factor         :     2.9149 
 ad hoc parameters k1-k3   :    16.0000     1.3333    -4.0000 

 Edisp/kcal,au: -16.428005197970  -0.026179689908 
 E6   /kcal   :  -9.102759816 
 E8   /kcal   :  -7.325245382 
 % E8         :  44.589986998 

-------------------------   ----------------
Dispersion correction           -0.026179690
-------------------------   ----------------

------------------   -----------------
gCP+bas correction        -0.047278973
------------------   -----------------
----------------------------   ----------------
Total correction to HF/MINIX       -0.073458663
----------------------------   ----------------


-------------------------   --------------------
FINAL SINGLE POINT ENERGY      -189.321240023049
-------------------------   --------------------


                            ***************************************
                            *     ORCA property calculations      *
                            ***************************************

                                    ---------------------
                                    Active property flags
                                    ---------------------
   (+) Dipole Moment


------------------------------------------------------------------------------
                       ORCA ELECTRIC PROPERTIES CALCULATION
------------------------------------------------------------------------------

Dipole Moment Calculation                       ... on
Quadrupole Moment Calculation                   ... off
Polarizability Calculation                      ... off
GBWName                                         ... acrolien.472.gbw
Electron density                                ... acrolien.472.scfp
The origin for moment calculation is the CENTER OF MASS  = (-0.664610, -0.741919 -0.246975)

-------------
DIPOLE MOMENT
-------------
                                X             Y             Z
Electronic contribution:     -2.10497      -1.80865      -0.63664
Nuclear contribution   :      2.48664       2.77114       0.98592
                        -----------------------------------------
Total Dipole Moment    :      0.38167       0.96249       0.34928
                        -----------------------------------------
Magnitude (a.u.)       :      1.09273
Magnitude (Debye)      :      2.77749



--------------------
Rotational spectrum 
--------------------
 
Rotational constants in cm-1:     0.859709     0.194713     0.164485 
Rotational constants in MHz : 25773.412980  5837.334127  4931.143218 

 Dipole components along the rotational axes: 
x,y,z [a.u.] :    -0.862033    -0.624388    -0.247170 
x,y,z [Debye]:    -2.191112    -1.587069    -0.628256 

 

Timings for individual modules:

Sum of individual times         ...        8.488 sec (=   0.141 min)
GTO integral calculation        ...        0.146 sec (=   0.002 min)   1.7 %
SCF iterations                  ...        3.006 sec (=   0.050 min)  35.4 %
CIS module                      ...        5.336 sec (=   0.089 min)  62.9 %
                             ****ORCA TERMINATED NORMALLY****
TOTAL RUN TIME: 0 days 0 hours 0 minutes 13 seconds 711 msec
