
                                 *****************
                                 * O   R   C   A *
                                 *****************

                                            #,                                       
                                            ###                                      
                                            ####                                     
                                            #####                                    
                                            ######                                   
                                           ########,                                 
                                     ,,################,,,,,                         
                               ,,#################################,,                 
                          ,,##########################################,,             
                       ,#########################################, ''#####,          
                    ,#############################################,,   '####,        
                  ,##################################################,,,,####,       
                ,###########''''           ''''###############################       
              ,#####''   ,,,,##########,,,,          '''####'''          '####       
            ,##' ,,,,###########################,,,                        '##       
           ' ,,###''''                  '''############,,,                           
         ,,##''                                '''############,,,,        ,,,,,,###''
      ,#''                                            '''#######################'''  
     '                                                          ''''####''''         
             ,#######,   #######,   ,#######,      ##                                
            ,#'     '#,  ##    ##  ,#'     '#,    #''#        ######   ,####,        
            ##       ##  ##   ,#'  ##            #'  '#       #        #'  '#        
            ##       ##  #######   ##           ,######,      #####,   #    #        
            '#,     ,#'  ##    ##  '#,     ,#' ,#      #,         ##   #,  ,#        
             '#######'   ##     ##  '#######'  #'      '#     #####' # '####'        



                  #######################################################
                  #                        -***-                        #
                  #          Department of theory and spectroscopy      #
                  #    Directorship and core code : Frank Neese         #
                  #        Max Planck Institute fuer Kohlenforschung    #
                  #                Kaiser Wilhelm Platz 1               #
                  #                 D-45470 Muelheim/Ruhr               #
                  #                      Germany                        #
                  #                                                     #
                  #                  All rights reserved                #
                  #                        -***-                        #
                  #######################################################


                         Program Version 5.0.3 -  RELEASE  -


 With contributions from (in alphabetic order):
   Daniel Aravena         : Magnetic Suceptibility
   Michael Atanasov       : Ab Initio Ligand Field Theory (pilot matlab implementation)
   Alexander A. Auer      : GIAO ZORA, VPT2 properties, NMR spectrum
   Ute Becker             : Parallelization
   Giovanni Bistoni       : ED, misc. LED, open-shell LED, HFLD
   Martin Brehm           : Molecular dynamics
   Dmytro Bykov           : SCF Hessian
   Vijay G. Chilkuri      : MRCI spin determinant printing, contributions to CSF-ICE
   Dipayan Datta          : RHF DLPNO-CCSD density
   Achintya Kumar Dutta   : EOM-CC, STEOM-CC
   Dmitry Ganyushin       : Spin-Orbit,Spin-Spin,Magnetic field MRCI
   Miquel Garcia          : C-PCM and meta-GGA Hessian, CC/C-PCM, Gaussian charge scheme
   Yang Guo               : DLPNO-NEVPT2, F12-NEVPT2, CIM, IAO-localization
   Andreas Hansen         : Spin unrestricted coupled pair/coupled cluster methods
   Benjamin Helmich-Paris : MC-RPA, TRAH-SCF, COSX integrals
   Lee Huntington         : MR-EOM, pCC
   Robert Izsak           : Overlap fitted RIJCOSX, COSX-SCS-MP3, EOM
   Marcus Kettner         : VPT2
   Christian Kollmar      : KDIIS, OOCD, Brueckner-CCSD(T), CCSD density, CASPT2, CASPT2-K
   Simone Kossmann        : Meta GGA functionals, TD-DFT gradient, OOMP2, MP2 Hessian
   Martin Krupicka        : Initial AUTO-CI
   Lucas Lang             : DCDCAS
   Marvin Lechner         : AUTO-CI (C++ implementation), FIC-MRCC
   Dagmar Lenk            : GEPOL surface, SMD
   Dimitrios Liakos       : Extrapolation schemes; Compound Job, initial MDCI parallelization
   Dimitrios Manganas     : Further ROCIS development; embedding schemes
   Dimitrios Pantazis     : SARC Basis sets
   Anastasios Papadopoulos: AUTO-CI, single reference methods and gradients
   Taras Petrenko         : DFT Hessian,TD-DFT gradient, ASA, ECA, R-Raman, ABS, FL, XAS/XES, NRVS
   Peter Pinski           : DLPNO-MP2, DLPNO-MP2 Gradient
   Christoph Reimann      : Effective Core Potentials
   Marius Retegan         : Local ZFS, SOC
   Christoph Riplinger    : Optimizer, TS searches, QM/MM, DLPNO-CCSD(T), (RO)-DLPNO pert. Triples
   Tobias Risthaus        : Range-separated hybrids, TD-DFT gradient, RPA, STAB
   Michael Roemelt        : Original ROCIS implementation
   Masaaki Saitow         : Open-shell DLPNO-CCSD energy and density
   Barbara Sandhoefer     : DKH picture change effects
   Avijit Sen             : IP-ROCIS
   Kantharuban Sivalingam : CASSCF convergence, NEVPT2, FIC-MRCI
   Bernardo de Souza      : ESD, SOC TD-DFT
   Georgi Stoychev        : AutoAux, RI-MP2 NMR, DLPNO-MP2 response
   Willem Van den Heuvel  : Paramagnetic NMR
   Boris Wezisla          : Elementary symmetry handling
   Frank Wennmohs         : Technical directorship


 We gratefully acknowledge several colleagues who have allowed us to
 interface, adapt or use parts of their codes:
   Stefan Grimme, W. Hujo, H. Kruse, P. Pracht,  : VdW corrections, initial TS optimization,
                  C. Bannwarth, S. Ehlert          DFT functionals, gCP, sTDA/sTD-DF
   Ed Valeev, F. Pavosevic, A. Kumar             : LibInt (2-el integral package), F12 methods
   Garnet Chan, S. Sharma, J. Yang, R. Olivares  : DMRG
   Ulf Ekstrom                                   : XCFun DFT Library
   Mihaly Kallay                                 : mrcc  (arbitrary order and MRCC methods)
   Jiri Pittner, Ondrej Demel                    : Mk-CCSD
   Frank Weinhold                                : gennbo (NPA and NBO analysis)
   Christopher J. Cramer and Donald G. Truhlar   : smd solvation model
   Lars Goerigk                                  : TD-DFT with DH, B97 family of functionals
   V. Asgeirsson, H. Jonsson                     : NEB implementation
   FAccTs GmbH                                   : IRC, NEB, NEB-TS, DLPNO-Multilevel, CI-OPT
                                                   MM, QMMM, 2- and 3-layer-ONIOM, Crystal-QMMM,
                                                   LR-CPCM, SF, NACMEs, symmetry and pop. for TD-DFT,
                                                   nearIR, NL-DFT gradient (VV10), updates on ESD,
                                                   ML-optimized integration grids
   S Lehtola, MJT Oliveira, MAL Marques          : LibXC Library
   Liviu Ungur et al                             : ANISO software


 Your calculation uses the libint2 library for the computation of 2-el integrals
 For citations please refer to: http://libint.valeyev.net

 Your ORCA version has been built with support for libXC version: 5.1.0
 For citations please refer to: https://tddft.org/programs/libxc/

 This ORCA versions uses:
   CBLAS   interface :  Fast vector & matrix operations
   LAPACKE interface :  Fast linear algebra routines
   SCALAPACK package :  Parallel linear algebra routines
   Shared memory     :  Shared parallel matrices
   BLAS/LAPACK       :  OpenBLAS 0.3.15  USE64BITINT DYNAMIC_ARCH NO_AFFINITY Haswell SINGLE_THREADED
        Core in use  :  Haswell
   Copyright (c) 2011-2014, The OpenBLAS Project


Your calculation utilizes the geometrical counterpoise correction gCP
Please cite in your paper:
H.Kruse, S. Grimme J.Chem.Phys., 136, (2012), 154101 
   

Your calculation utilizes the atom-pairwise dispersion correction
with the Becke-Johnson damping scheme (D3BJ)
Cite in your paper:
S.Grimme, S.Ehrlich, L.Goerigk, J Comput Chem, (2011), 32, 1456–1465 
S.Grimme, J.Antony, S.Ehrlich and H.Krieg, J.Chem.Phys., 132, (2010), 154104 
   

================================================================================

----- Orbital basis set information -----
Your calculation utilizes the basis: MINIX,
   a combination of small basis sets by S. Grimme (see manual for definitions).

================================================================================
                                        WARNINGS
                       Please study these warnings very carefully!
================================================================================

INFO   : Checking CIS options ...

INFO   : the flag for use of the SHARK integral package has been found!

================================================================================
                                       INPUT FILE
================================================================================
NAME = acrolien.559.com
|  1> ! HF-3c
|  2> !TightSCF
|  3> %scf
|  4>  ConvForced true
|  5>  convergence tight
|  6>  MaxIter 500
|  7> end
|  8>  
|  9> %tddft 
| 10>  nroots 1
| 11> end
| 12> 
| 13> # 	6816
| 14> * xyz 0 1
| 15> 		C   -1.246274  -0.265723  -0.089217
| 16> 		O   -1.965194  -0.549629  -0.954777
| 17> 		C    0.083010   0.521248  -0.167303
| 18> 		C    1.155468   0.069507   0.294578
| 19> 		H   -1.356995  -0.759171   0.896146
| 20> 		H   -0.021013   1.347463  -0.904951
| 21> 		H    1.285451  -0.856926   0.784188
| 22> 		H    2.082218   0.614217   0.152100
| 23> *
| 24> 
| 25>                          ****END OF INPUT****
================================================================================

                       ****************************
                       * Single Point Calculation *
                       ****************************

---------------------------------
CARTESIAN COORDINATES (ANGSTROEM)
---------------------------------
  C     -1.246274   -0.265723   -0.089217
  O     -1.965194   -0.549629   -0.954777
  C      0.083010    0.521248   -0.167303
  C      1.155468    0.069507    0.294578
  H     -1.356995   -0.759171    0.896146
  H     -0.021013    1.347463   -0.904951
  H      1.285451   -0.856926    0.784188
  H      2.082218    0.614217    0.152100

----------------------------
CARTESIAN COORDINATES (A.U.)
----------------------------
  NO LB      ZA    FRAG     MASS         X           Y           Z
   0 C     6.0000    0    12.011   -2.355117   -0.502144   -0.168596
   1 O     8.0000    0    15.999   -3.713678   -1.038648   -1.804267
   2 C     6.0000    0    12.011    0.156866    0.985016   -0.316157
   3 C     6.0000    0    12.011    2.183518    0.131349    0.556672
   4 H     1.0000    0     1.008   -2.564349   -1.434625    1.693471
   5 H     1.0000    0     1.008   -0.039709    2.546336   -1.710110
   6 H     1.0000    0     1.008    2.429150   -1.619355    1.481901
   7 H     1.0000    0     1.008    3.934822    1.160702    0.287427

--------------------------------
INTERNAL COORDINATES (ANGSTROEM)
--------------------------------
 C      0   0   0     0.000000000000     0.00000000     0.00000000
 O      1   0   0     1.160449351258     0.00000000     0.00000000
 C      1   2   0     1.546743912512   128.26071827     0.00000000
 C      3   1   2     1.252026417855   122.27270572   234.35328435
 H      1   2   3     1.107560522190   119.51548059   194.14488253
 H      3   1   2     1.112464193877   109.32878881    39.00651352
 H      4   3   1     1.055884290951   126.37597854   359.25142280
 H      4   3   1     1.084377483667   120.15557639   175.14537337

---------------------------
INTERNAL COORDINATES (A.U.)
---------------------------
 C      0   0   0     0.000000000000     0.00000000     0.00000000
 O      1   0   0     2.192931466165     0.00000000     0.00000000
 C      1   2   0     2.922922393958   128.26071827     0.00000000
 C      3   1   2     2.365987042180   122.27270572   234.35328435
 H      1   2   3     2.092986063682   119.51548059   194.14488253
 H      3   1   2     2.102252660221   109.32878881    39.00651352
 H      4   3   1     1.995332139008   126.37597854   359.25142280
 H      4   3   1     2.049176469921   120.15557639   175.14537337

---------------------
BASIS SET INFORMATION
---------------------
There are 3 groups of distinct atoms

 Group   1 Type C   : 6s3p contracted to 2s1p pattern {33/3}
 Group   2 Type O   : 6s3p contracted to 2s1p pattern {33/3}
 Group   3 Type H   : 3s contracted to 1s pattern {3}

Atom   0C    basis set group =>   1
Atom   1O    basis set group =>   2
Atom   2C    basis set group =>   1
Atom   3C    basis set group =>   1
Atom   4H    basis set group =>   3
Atom   5H    basis set group =>   3
Atom   6H    basis set group =>   3
Atom   7H    basis set group =>   3
------------------------------------------------------------------------------
                           ORCA GTO INTEGRAL CALCULATION
------------------------------------------------------------------------------
------------------------------------------------------------------------------
                   ___                                                        
                  /   \      - P O W E R E D   B Y -                         
                 /     \                                                     
                 |  |  |   _    _      __       _____    __    __             
                 |  |  |  | |  | |    /  \     |  _  \  |  |  /  |          
                  \  \/   | |  | |   /    \    | | | |  |  | /  /          
                 / \  \   | |__| |  /  /\  \   | |_| |  |  |/  /          
                |  |  |   |  __  | /  /__\  \  |    /   |      \           
                |  |  |   | |  | | |   __   |  |    \   |  |\   \          
                \     /   | |  | | |  |  |  |  | |\  \  |  | \   \       
                 \___/    |_|  |_| |__|  |__|  |_| \__\ |__|  \__/        
                                                                              
                      - O R C A' S   B I G   F R I E N D -                    
                                      &                                       
                       - I N T E G R A L  F E E D E R -                       
                                                                              
 v1 FN, 2020, v2 2021                                                         
------------------------------------------------------------------------------


Reading SHARK input file acrolien.559.SHARKINP.tmp ... ok
----------------------
SHARK INTEGRAL PACKAGE
----------------------

Number of atoms                             ...      8
Number of basis functions                   ...     24
Number of shells                            ...     16
Maximum angular momentum                    ...      1
Integral batch strategy                     ... SHARK/LIBINT Hybrid
RI-J (if used) integral strategy            ... SPLIT-RIJ (Revised 2003 algorithm where possible)
Printlevel                                  ...      1
Contraction scheme used                     ... SEGMENTED contraction
Coulomb Range Separation                    ... NOT USED
Exchange Range Separation                   ... NOT USED
Finite Nucleus Model                        ... NOT USED
Auxiliary Coulomb fitting basis             ... NOT available
Auxiliary J/K fitting basis                 ... NOT available
Auxiliary Correlation fitting basis         ... NOT available
Auxiliary 'external' fitting basis          ... NOT available
Integral threshold                          ...     2.500000e-11
Primitive cut-off                           ...     2.500000e-12
Primitive pair pre-selection threshold      ...     2.500000e-12

Calculating pre-screening integrals         ... done (  0.0 sec) Dimension = 16
Organizing shell pair data                  ... done (  0.2 sec)
Shell pair information
Total number of shell pairs                 ...       136
Shell pairs after pre-screening             ...       133
Total number of primitive shell pairs       ...      1224
Primitive shell pairs kept                  ...       999
          la=0 lb=0:     75 shell pairs
          la=1 lb=0:     48 shell pairs
          la=1 lb=1:     10 shell pairs

Calculating one electron integrals          ... done (  0.0 sec)
Calculating Nuclear repulsion               ... done (  0.1 sec) ENN=    104.454981998765 Eh
Calculating 4-index integrals               ... 
    -> SHARK/Ints2Disk: Thresh =     2.500000e-11 TCut=    2.500000e-12 
    -> calling libint FockFlag=2 Lmax_loc=1
    ->Total LIBINT loop time =    0.000 sec
    -> L=0 0 0 0:     0.003 sec done=      2812 (=100.0%) skipped=         0 
    -> L=1 0 0 0:     0.007 sec done=      3585 (=100.0%) skipped=         0 
    -> L=1 0 1 0:     0.004 sec done=      1175 (=100.0%) skipped=         0 
    -> L=1 1 0 0:     0.003 sec done=       750 (=100.0%) skipped=         0 
    -> L=1 1 1 0:     0.004 sec done=       480 (=100.0%) skipped=         0 
    -> L=1 1 1 1:     0.001 sec done=        55 (=100.0%) skipped=         0 
    ->Total SHARK integral loop time =    0.022 sec
    -> Total Integral generation matrix time =    0.042 sec
    -> Number of small integrals   =       716
    -> Number of medium integrals  =      2389
    -> Number of large integrals   =     40596
    -> Number of MB stored         =         0 MB


SHARK setup successfully completed in   0.6 seconds

Maximum memory used throughout the entire GTOINT-calculation: 29.5 MB
-------------------------------------------------------------------------------
                                 ORCA SCF
-------------------------------------------------------------------------------

------------
SCF SETTINGS
------------
Hamiltonian:
 Ab initio Hamiltonian  Method          .... Hartree-Fock(GTOs)


General Settings:
 Integral files         IntName         .... acrolien.559
 Hartree-Fock type      HFTyp           .... RHF
 Total Charge           Charge          ....    0
 Multiplicity           Mult            ....    1
 Number of Electrons    NEL             ....   30
 Basis Dimension        Dim             ....   24
 Nuclear Repulsion      ENuc            ....    104.4549819988 Eh

Convergence Acceleration:
 DIIS                   CNVDIIS         .... on
   Start iteration      DIISMaxIt       ....    12
   Startup error        DIISStart       ....  0.200000
   # of expansion vecs  DIISMaxEq       ....     5
   Bias factor          DIISBfac        ....   1.050
   Max. coefficient     DIISMaxC        ....  10.000
 Trust-Rad. Augm. Hess. CNVTRAH         .... auto
   Auto Start mean grad. ratio tolernc. ....  1.125000
   Auto Start start iteration           ....    20
   Auto Start num. interpolation iter.  ....    10
   Max. Number of Micro iterations      ....    16
   Max. Number of Macro iterations      .... Maxiter - #DIIS iter
   Number of Davidson start vectors     ....     2
   Converg. threshold I  (grad. norm)   ....   1.000e-05
   Converg. threshold II (energy diff.) ....   1.000e-08
   Grad. Scal. Fac. for Micro threshold ....   0.100
   Minimum threshold for Micro iter.    ....   0.010
   NR start threshold (gradient norm)   ....   0.001
   Initial trust radius                 ....   0.400
   Minimum AH scaling param. (alpha)    ....   1.000
   Maximum AH scaling param. (alpha)    .... 1000.000
   Orbital update algorithm             .... Taylor
   White noise on init. David. guess    .... on
   Maximum white noise                  ....   0.010
   Quad. conv. algorithm                .... NR
 SOSCF                  CNVSOSCF        .... on
   Start iteration      SOSCFMaxIt      ....   150
   Startup grad/error   SOSCFStart      ....  0.003300
 Level Shifting         CNVShift        .... on
   Level shift para.    LevelShift      ....    0.2500
   Turn off err/grad.   ShiftErr        ....    0.0010
 Zerner damping         CNVZerner       .... off
 Static damping         CNVDamp         .... on
   Fraction old density DampFac         ....    0.7000
   Max. Damping (<1)    DampMax         ....    0.9800
   Min. Damping (>=0)   DampMin         ....    0.0000
   Turn off err/grad.   DampErr         ....    0.1000
 Fernandez-Rico         CNVRico         .... off

SCF Procedure:
 Maximum # iterations   MaxIter         ....   500
 SCF integral mode      SCFMode         .... Conventional
 Integral Threshold     Thresh          ....  2.500e-11 Eh
 Primitive CutOff       TCut            ....  2.500e-12 Eh
 Integral Buffer length BufferLength    .... 1048576
 Integral index format  IndFormat       ....     0
 Integral value format  ValFormat       ....     0
 Integral Storage       Thresh          ....  2.500e-11 Eh

Convergence Tolerance:
 Convergence Check Mode ConvCheckMode   .... Total+1el-Energy
 Convergence forced     ConvForced      .... 1
 Energy Change          TolE            ....  1.000e-08 Eh
 1-El. energy change                    ....  1.000e-05 Eh
 Orbital Gradient       TolG            ....  1.000e-05
 Orbital Rotation angle TolX            ....  1.000e-05
 DIIS Error             TolErr          ....  5.000e-07


Diagonalization of the overlap matrix:
Smallest eigenvalue                        ... 1.531e-01
Time for diagonalization                   ...    0.000 sec
Threshold for overlap eigenvalues          ... 1.000e-08
Number of eigenvalues below threshold      ... 0
Time for construction of square roots      ...    0.173 sec
Total time needed                          ...    0.173 sec

--------------------------------
INITIAL GUESS: MINIMAL BASIS EHT
--------------------------------
The minimal basis has 24 functions
EHT matrix was diagonalized
Basis set overlap was calculated now projecting the orbitals
Using GuessMode=FMatrix for the initial guess
C*T matrix was formed
Effective Fockian was calculated
Effective Fockian was diagonalized
Initial density was built
                      ------------------
                      INITIAL GUESS DONE
                      ------------------

 InCore treatment chosen:
   Memory dedicated               ...    1024 MB
   Memory needed                  ...      0 MB
   Number of tiny    integrals    ...     716
   Number of small   integrals    ...    2389
   Number of regular integrals    ...   40596

--------------
SCF ITERATIONS
--------------
ITER       Energy         Delta-E        Max-DP      RMS-DP      [F,P]     Damp
  0   -188.9595475389   0.000000000000 0.10508665  0.01378617  0.2875935 0.7000
  1   -189.0910098990  -0.131462360064 0.08461527  0.01099383  0.2078424 0.7000
                               ***Turning on DIIS***
  2   -189.1795770812  -0.088567182199 0.05231390  0.00732296  0.1491146 0.7000
  3   -189.2145009415  -0.034923860335 0.03637496  0.00467989  0.1069824 0.7000
  4   -189.2513014796  -0.036800538025 0.09688506  0.01162269  0.0757014 0.0000
  5   -189.3847431746  -0.133441695096 0.00768177  0.00110040  0.0050920 0.0000
                      *** Initiating the SOSCF procedure ***
                           *** Shutting down DIIS ***
                      *** Re-Reading the Fockian *** 
                      *** Removing any level shift *** 
ITER      Energy       Delta-E        Grad      Rot      Max-DP    RMS-DP
  6   -189.38566446  -0.0009212817  0.000924  0.000924  0.002679  0.000338
  7   -189.38587586  -0.0002113991  0.000484  0.000662  0.000966  0.000164
  8   -189.38587986  -0.0000040007  0.000168  0.000415  0.000596  0.000101
  9   -189.38588048  -0.0000006240  0.000062  0.000061  0.000152  0.000019
 10   -189.38588054  -0.0000000580  0.000018  0.000034  0.000075  0.000008
                 **** Energy Check signals convergence ****
              ***Rediagonalizing the Fockian in SOSCF/NRSCF***

               *****************************************************
               *                     SUCCESS                       *
               *           SCF CONVERGED AFTER  11 CYCLES          *
               *****************************************************


----------------
TOTAL SCF ENERGY
----------------

Total Energy       :         -189.38588055 Eh           -5153.45181 eV

Components:
Nuclear Repulsion  :          104.45498200 Eh            2842.36456 eV
Electronic Energy  :         -293.84086255 Eh           -7995.81637 eV
One Electron Energy:         -463.28806293 Eh          -12606.70911 eV
Two Electron Energy:          169.44720039 Eh            4610.89274 eV

Virial components:
Potential Energy   :         -378.62900221 Eh          -10303.01895 eV
Kinetic Energy     :          189.24312166 Eh            5149.56714 eV
Virial Ratio       :            2.00075437


---------------
SCF CONVERGENCE
---------------

  Last Energy change         ...   -8.9942e-09  Tolerance :   1.0000e-08
  Last MAX-Density change    ...    6.8829e-05  Tolerance :   1.0000e-07
  Last RMS-Density change    ...    6.8089e-06  Tolerance :   5.0000e-09
  Last Orbital Gradient      ...    9.9385e-06  Tolerance :   1.0000e-05
  Last Orbital Rotation      ...    3.7947e-05  Tolerance :   1.0000e-05

             **** THE GBW FILE WAS UPDATED (acrolien.559.gbw) ****
             **** DENSITY acrolien.559.scfp WAS UPDATED ****
             **** ENERGY FILE WAS UPDATED (acrolien.559.en.tmp) ****
             **** THE GBW FILE WAS UPDATED (acrolien.559.gbw) ****
             **** DENSITY acrolien.559.scfp WAS UPDATED ****
----------------
ORBITAL ENERGIES
----------------

  NO   OCC          E(Eh)            E(eV) 
   0   2.0000     -20.394379      -554.9593 
   1   2.0000     -11.311379      -307.7983 
   2   2.0000     -11.198712      -304.7324 
   3   2.0000     -11.194775      -304.6253 
   4   2.0000      -1.446946       -39.3734 
   5   2.0000      -1.105199       -30.0740 
   6   2.0000      -0.876016       -23.8376 
   7   2.0000      -0.780105       -21.2277 
   8   2.0000      -0.684331       -18.6216 
   9   2.0000      -0.661388       -17.9973 
  10   2.0000      -0.611633       -16.6434 
  11   2.0000      -0.556397       -15.1403 
  12   2.0000      -0.546769       -14.8783 
  13   2.0000      -0.430016       -11.7013 
  14   2.0000      -0.398784       -10.8515 
  15   0.0000       0.167857         4.5676 
  16   0.0000       0.288188         7.8420 
  17   0.0000       0.503881        13.7113 
  18   0.0000       0.605164        16.4674 
  19   0.0000       0.697975        18.9929 
  20   0.0000       0.712805        19.3964 
  21   0.0000       0.886192        24.1145 
  22   0.0000       0.970478        26.4081 
  23   0.0000       1.112056        30.2606 

                    ********************************
                    * MULLIKEN POPULATION ANALYSIS *
                    ********************************

-----------------------
MULLIKEN ATOMIC CHARGES
-----------------------
   0 C :    0.196663
   1 O :   -0.356456
   2 C :   -0.161235
   3 C :   -0.262118
   4 H :    0.127770
   5 H :    0.157885
   6 H :    0.147047
   7 H :    0.150446
Sum of atomic charges:   -0.0000000

--------------------------------
MULLIKEN REDUCED ORBITAL CHARGES
--------------------------------
  0 C s       :     3.053207  s :     3.053207
      pz      :     0.955000  p :     2.750131
      px      :     0.891082
      py      :     0.904048
  1 O s       :     3.819740  s :     3.819740
      pz      :     1.626622  p :     4.536717
      px      :     1.489866
      py      :     1.420229
  2 C s       :     3.082051  s :     3.082051
      pz      :     1.032386  p :     3.079183
      px      :     0.994426
      py      :     1.052371
  3 C s       :     3.102138  s :     3.102138
      pz      :     1.011005  p :     3.159981
      px      :     1.075271
      py      :     1.073705
  4 H s       :     0.872230  s :     0.872230
  5 H s       :     0.842115  s :     0.842115
  6 H s       :     0.852953  s :     0.852953
  7 H s       :     0.849554  s :     0.849554


                     *******************************
                     * LOEWDIN POPULATION ANALYSIS *
                     *******************************

----------------------
LOEWDIN ATOMIC CHARGES
----------------------
   0 C :    0.159264
   1 O :   -0.240542
   2 C :   -0.116594
   3 C :   -0.162137
   4 H :    0.062836
   5 H :    0.104784
   6 H :    0.093655
   7 H :    0.098735

-------------------------------
LOEWDIN REDUCED ORBITAL CHARGES
-------------------------------
  0 C s       :     2.985158  s :     2.985158
      pz      :     0.996889  p :     2.855578
      px      :     0.939662
      py      :     0.919027
  1 O s       :     3.667194  s :     3.667194
      pz      :     1.649069  p :     4.573347
      px      :     1.503068
      py      :     1.421211
  2 C s       :     2.970569  s :     2.970569
      pz      :     1.031319  p :     3.146025
      px      :     1.054111
      py      :     1.060594
  3 C s       :     2.967814  s :     2.967814
      pz      :     1.016085  p :     3.194324
      px      :     1.107737
      py      :     1.070502
  4 H s       :     0.937164  s :     0.937164
  5 H s       :     0.895216  s :     0.895216
  6 H s       :     0.906345  s :     0.906345
  7 H s       :     0.901265  s :     0.901265


                      *****************************
                      * MAYER POPULATION ANALYSIS *
                      *****************************

  NA   - Mulliken gross atomic population
  ZA   - Total nuclear charge
  QA   - Mulliken gross atomic charge
  VA   - Mayer's total valence
  BVA  - Mayer's bonded valence
  FA   - Mayer's free valence

  ATOM       NA         ZA         QA         VA         BVA        FA
  0 C      5.8033     6.0000     0.1967     3.8508     3.8508    -0.0000
  1 O      8.3565     8.0000    -0.3565     2.0880     2.0880     0.0000
  2 C      6.1612     6.0000    -0.1612     3.9741     3.9741    -0.0000
  3 C      6.2621     6.0000    -0.2621     3.9569     3.9569    -0.0000
  4 H      0.8722     1.0000     0.1278     0.9837     0.9837    -0.0000
  5 H      0.8421     1.0000     0.1579     0.9751     0.9751     0.0000
  6 H      0.8530     1.0000     0.1470     0.9784     0.9784     0.0000
  7 H      0.8496     1.0000     0.1504     0.9774     0.9774    -0.0000

  Mayer bond orders larger than 0.100000
B(  0-C ,  1-O ) :   1.9524 B(  0-C ,  2-C ) :   0.9599 B(  0-C ,  4-H ) :   0.9158 
B(  2-C ,  3-C ) :   2.0073 B(  2-C ,  5-H ) :   0.9480 B(  3-C ,  6-H ) :   0.9590 
B(  3-C ,  7-H ) :   0.9551 

-------
TIMINGS
-------

Total SCF time: 0 days 0 hours 0 min 3 sec 

Total time                  ....       3.501 sec
Sum of individual times     ....       1.596 sec  ( 45.6%)

Fock matrix formation       ....       0.083 sec  (  2.4%)
Diagonalization             ....       0.001 sec  (  0.0%)
Density matrix formation    ....       0.000 sec  (  0.0%)
Population analysis         ....       1.506 sec  ( 43.0%)
Initial guess               ....       0.002 sec  (  0.1%)
Orbital Transformation      ....       0.000 sec  (  0.0%)
Orbital Orthonormalization  ....       0.000 sec  (  0.0%)
DIIS solution               ....       0.001 sec  (  0.0%)
SOSCF solution              ....       0.003 sec  (  0.1%)

Maximum memory used throughout the entire SCF-calculation: 224.9 MB
------------------------------------------------------------------------------
                         ORCA CIS CALCULATION
------------------------------------------------------------------------------

Input orbitals are from        ... acrolien.559.gbw
CI-vector output               ... acrolien.559.cis
Tamm-Dancoff approximation     ... operative
CIS-Integral strategy          ... AO-integrals
Integral handling              ... AO integral Conventional
Reference state                ... RHF
Generation of triplets         ... off
Follow IRoot                   ... off
Number of operators            ... 1
Orbital ranges used for CIS calculation:
 Operator 0:  Orbitals   4... 14  to  15... 23
XAS localization array:
 Operator 0:  Orbitals  -1... -1

------------------------
DAVIDSON-DIAGONALIZATION
------------------------

Dimension of the eigenvalue problem            ...     99
Number of roots to be determined               ...      1
Maximum size of the expansion space            ...     10
Maximum number of iterations                   ...    100
Convergence tolerance for the residual         ...    2.500e-07
Convergence tolerance for the energies         ...    2.500e-07
Orthogonality tolerance                        ...    1.000e-14
Level Shift                                    ...    0.000e+00
Constructing the preconditioner                ... o.k.
Building the initial guess                     ... o.k.
Number of trial vectors determined             ...     10


                       ****Iteration    0****

   Memory handling for direct AO based CIS:
   Memory per vector needed      ...     1 MB
   Memory needed                 ...     0 MB
   Memory available              ...   512 MB
   Number of vectors per batch   ...   512
   Number of batches             ...     1
   Time for densities:            0.000
   SHARK[4]
   Time for Sigma-Completion:     0.000
   Size of expansion space: 3
   Lowest Energy          :     0.196076429800
   Maximum Energy change  :     0.196076429800 (vector 0)
   Maximum residual norm  :     0.009389190051

                       ****Iteration    1****
   Time for densities:            0.000
   SHARK[4]
   Time for Sigma-Completion:     0.000
   Size of expansion space: 4
   Lowest Energy          :     0.168754169732
   Maximum Energy change  :     0.027322260068 (vector 0)
   Maximum residual norm  :     0.001189594797

                       ****Iteration    2****
   Time for densities:            0.000
   SHARK[4]
   Time for Sigma-Completion:     0.000
   Size of expansion space: 5
   Lowest Energy          :     0.166297111829
   Maximum Energy change  :     0.002457057903 (vector 0)
   Maximum residual norm  :     0.000109757914

                       ****Iteration    3****
   Time for densities:            0.000
   SHARK[4]
   Time for Sigma-Completion:     0.000
   Size of expansion space: 6
   Lowest Energy          :     0.166170724151
   Maximum Energy change  :     0.000126387677 (vector 0)
   Maximum residual norm  :     0.000006019454

                       ****Iteration    4****
   Time for densities:            0.000
   SHARK[4]
   Time for Sigma-Completion:     0.000
   Size of expansion space: 7
   Lowest Energy          :     0.166160597500
   Maximum Energy change  :     0.000010126651 (vector 0)
   Maximum residual norm  :     0.000000428199

                       ****Iteration    5****
   Time for densities:            0.000
   SHARK[4]
   Time for Sigma-Completion:     0.000
   Size of expansion space: 8
   Lowest Energy          :     0.166159572046
   Maximum Energy change  :     0.000001025454 (vector 0)
   Maximum residual norm  :     0.000000064937

      *** CONVERGENCE OF RESIDUAL NORM REACHED ***

Storing the converged CI vectors               ... acrolien.559.cis1

                 *** DAVIDSON DONE ***

Total time for solving the CIS problem:     1.771sec

-----------------------------
CIS-EXCITED STATES (SINGLETS)
-----------------------------

the weight of the individual excitations are printed if larger than 1.0e-02

STATE  1:  E=   0.166160 au      4.521 eV    36467.8 cm**-1 <S**2> =   0.000000
     8a ->  15a  :     0.014322 (c= -0.11967486)
    12a ->  15a  :     0.040577 (c= -0.20143683)
    12a ->  16a  :     0.020885 (c= -0.14451750)
    14a ->  15a  :     0.740908 (c=  0.86075999)
    14a ->  16a  :     0.160134 (c=  0.40016730)


----------------------
CIS-EXCITATION SPECTRA
----------------------

Center of mass = ( -0.9953, -0.1531, -0.4680)
Calculating the Dipole integrals                  ... done
Transforming integrals                            ... done
Calculating the Linear Momentum integrals         ... done
Transforming integrals                            ... done
Calculating angular momentum integrals            ... done
Transforming integrals                            ... done

-----------------------------------------------------------------------------
         ABSORPTION SPECTRUM VIA TRANSITION ELECTRIC DIPOLE MOMENTS
-----------------------------------------------------------------------------
State   Energy    Wavelength  fosc         T2        TX        TY        TZ  
        (cm-1)      (nm)                 (au**2)    (au)      (au)      (au) 
-----------------------------------------------------------------------------
   1   36467.8    274.2   0.000216388   0.00195   0.03258   0.02109  -0.02115

-----------------------------------------------------------------------------
         ABSORPTION SPECTRUM VIA TRANSITION VELOCITY DIPOLE MOMENTS
-----------------------------------------------------------------------------
State   Energy    Wavelength   fosc        P2         PX        PY        PZ  
        (cm-1)      (nm)                 (au**2)     (au)      (au)      (au) 
-----------------------------------------------------------------------------
   1   36467.8    274.2   0.000781034   0.00019  -0.00291  -0.01298  -0.00422

-------------------------------------------------------------------
                             CD SPECTRUM
-------------------------------------------------------------------
State  Energy     Wavelength     R         MX        MY        MZ   
       (cm-1)       (nm)     (1e40*cgs)   (au)      (au)      (au)  
-------------------------------------------------------------------
   1   36467.8    274.2     -2.97052  -0.33131  -0.17246  -0.38435

-------------------------------------------------------------------
         CD SPECTRUM VIA TRANSITION VELOCITY DIPOLE MOMENTS        
-------------------------------------------------------------------
State  Energy     Wavelength     R         MX        MY        MZ   
       (cm-1)       (nm)     (1e40*cgs)   (au)      (au)      (au)  
-------------------------------------------------------------------
   1   36467.8    274.2     13.69115  -0.33131  -0.17246  -0.38435

Total run time:        3.417 sec

           *** ORCA-CIS/TD-DFT FINISHED WITHOUT ERROR ***

Maximum memory used throughout the entire CIS-calculation: 51.7 MB

-----------------------
CIS/TD-DFT TOTAL ENERGY
-----------------------

    E(SCF)  =   -189.385880547 Eh
    DE(CIS) =      0.166159572 Eh (Root  1)
    ----------------------------- ---------
    E(tot)  =   -189.219720975 Eh



-------------------------------------------------------------------------------
                          DFT DISPERSION CORRECTION                            
                                                                               
                              DFTD3 V3.1  Rev 1                                
                          USING Becke-Johnson damping                          
-------------------------------------------------------------------------------
Hartree-Fock is recognized
Active option DFTDOPT                   ...         4   

molecular C6(AA) [au] = 660.991915 


            DFT-D V3
 parameters
 using HF/MINIX parameters
 s6 scaling factor         :     1.0000 
 a1 scaling factor         :     0.4171 
 s8 scaling factor         :     0.8777 
 a2 scaling factor         :     2.9149 
 ad hoc parameters k1-k3   :    16.0000     1.3333    -4.0000 

 Edisp/kcal,au: -15.989568161959  -0.025480996092 
 E6   /kcal   :  -8.868508015 
 E8   /kcal   :  -7.121060147 
 % E8         :  44.535662723 

-------------------------   ----------------
Dispersion correction           -0.025480996
-------------------------   ----------------

------------------   -----------------
gCP+bas correction        -0.064345744
------------------   -----------------
----------------------------   ----------------
Total correction to HF/MINIX       -0.089826740
----------------------------   ----------------


-------------------------   --------------------
FINAL SINGLE POINT ENERGY      -189.309547715499
-------------------------   --------------------


                            ***************************************
                            *     ORCA property calculations      *
                            ***************************************

                                    ---------------------
                                    Active property flags
                                    ---------------------
   (+) Dipole Moment


------------------------------------------------------------------------------
                       ORCA ELECTRIC PROPERTIES CALCULATION
------------------------------------------------------------------------------

Dipole Moment Calculation                       ... on
Quadrupole Moment Calculation                   ... off
Polarizability Calculation                      ... off
GBWName                                         ... acrolien.559.gbw
Electron density                                ... acrolien.559.scfp
The origin for moment calculation is the CENTER OF MASS  = (-0.995329, -0.153069 -0.467964)

-------------
DIPOLE MOMENT
-------------
                                X             Y             Z
Electronic contribution:     -3.07360      -0.40941      -1.20583
Nuclear contribution   :      3.82195       0.62126       1.78899
                        -----------------------------------------
Total Dipole Moment    :      0.74835       0.21185       0.58316
                        -----------------------------------------
Magnitude (a.u.)       :      0.97210
Magnitude (Debye)      :      2.47089



--------------------
Rotational spectrum 
--------------------
 
Rotational constants in cm-1:     1.357583     0.157707     0.149681 
Rotational constants in MHz : 40699.307654  4727.924213  4487.327052 

 Dipole components along the rotational axes: 
x,y,z [a.u.] :    -0.917883    -0.194834    -0.254002 
x,y,z [Debye]:    -2.333073    -0.495229    -0.645621 

 

Timings for individual modules:

Sum of individual times         ...        9.516 sec (=   0.159 min)
GTO integral calculation        ...        0.913 sec (=   0.015 min)   9.6 %
SCF iterations                  ...        4.846 sec (=   0.081 min)  50.9 %
CIS module                      ...        3.757 sec (=   0.063 min)  39.5 %
                             ****ORCA TERMINATED NORMALLY****
TOTAL RUN TIME: 0 days 0 hours 0 minutes 13 seconds 423 msec
