
                                 *****************
                                 * O   R   C   A *
                                 *****************

                                            #,                                       
                                            ###                                      
                                            ####                                     
                                            #####                                    
                                            ######                                   
                                           ########,                                 
                                     ,,################,,,,,                         
                               ,,#################################,,                 
                          ,,##########################################,,             
                       ,#########################################, ''#####,          
                    ,#############################################,,   '####,        
                  ,##################################################,,,,####,       
                ,###########''''           ''''###############################       
              ,#####''   ,,,,##########,,,,          '''####'''          '####       
            ,##' ,,,,###########################,,,                        '##       
           ' ,,###''''                  '''############,,,                           
         ,,##''                                '''############,,,,        ,,,,,,###''
      ,#''                                            '''#######################'''  
     '                                                          ''''####''''         
             ,#######,   #######,   ,#######,      ##                                
            ,#'     '#,  ##    ##  ,#'     '#,    #''#        ######   ,####,        
            ##       ##  ##   ,#'  ##            #'  '#       #        #'  '#        
            ##       ##  #######   ##           ,######,      #####,   #    #        
            '#,     ,#'  ##    ##  '#,     ,#' ,#      #,         ##   #,  ,#        
             '#######'   ##     ##  '#######'  #'      '#     #####' # '####'        



                  #######################################################
                  #                        -***-                        #
                  #          Department of theory and spectroscopy      #
                  #    Directorship and core code : Frank Neese         #
                  #        Max Planck Institute fuer Kohlenforschung    #
                  #                Kaiser Wilhelm Platz 1               #
                  #                 D-45470 Muelheim/Ruhr               #
                  #                      Germany                        #
                  #                                                     #
                  #                  All rights reserved                #
                  #                        -***-                        #
                  #######################################################


                         Program Version 5.0.3 -  RELEASE  -


 With contributions from (in alphabetic order):
   Daniel Aravena         : Magnetic Suceptibility
   Michael Atanasov       : Ab Initio Ligand Field Theory (pilot matlab implementation)
   Alexander A. Auer      : GIAO ZORA, VPT2 properties, NMR spectrum
   Ute Becker             : Parallelization
   Giovanni Bistoni       : ED, misc. LED, open-shell LED, HFLD
   Martin Brehm           : Molecular dynamics
   Dmytro Bykov           : SCF Hessian
   Vijay G. Chilkuri      : MRCI spin determinant printing, contributions to CSF-ICE
   Dipayan Datta          : RHF DLPNO-CCSD density
   Achintya Kumar Dutta   : EOM-CC, STEOM-CC
   Dmitry Ganyushin       : Spin-Orbit,Spin-Spin,Magnetic field MRCI
   Miquel Garcia          : C-PCM and meta-GGA Hessian, CC/C-PCM, Gaussian charge scheme
   Yang Guo               : DLPNO-NEVPT2, F12-NEVPT2, CIM, IAO-localization
   Andreas Hansen         : Spin unrestricted coupled pair/coupled cluster methods
   Benjamin Helmich-Paris : MC-RPA, TRAH-SCF, COSX integrals
   Lee Huntington         : MR-EOM, pCC
   Robert Izsak           : Overlap fitted RIJCOSX, COSX-SCS-MP3, EOM
   Marcus Kettner         : VPT2
   Christian Kollmar      : KDIIS, OOCD, Brueckner-CCSD(T), CCSD density, CASPT2, CASPT2-K
   Simone Kossmann        : Meta GGA functionals, TD-DFT gradient, OOMP2, MP2 Hessian
   Martin Krupicka        : Initial AUTO-CI
   Lucas Lang             : DCDCAS
   Marvin Lechner         : AUTO-CI (C++ implementation), FIC-MRCC
   Dagmar Lenk            : GEPOL surface, SMD
   Dimitrios Liakos       : Extrapolation schemes; Compound Job, initial MDCI parallelization
   Dimitrios Manganas     : Further ROCIS development; embedding schemes
   Dimitrios Pantazis     : SARC Basis sets
   Anastasios Papadopoulos: AUTO-CI, single reference methods and gradients
   Taras Petrenko         : DFT Hessian,TD-DFT gradient, ASA, ECA, R-Raman, ABS, FL, XAS/XES, NRVS
   Peter Pinski           : DLPNO-MP2, DLPNO-MP2 Gradient
   Christoph Reimann      : Effective Core Potentials
   Marius Retegan         : Local ZFS, SOC
   Christoph Riplinger    : Optimizer, TS searches, QM/MM, DLPNO-CCSD(T), (RO)-DLPNO pert. Triples
   Tobias Risthaus        : Range-separated hybrids, TD-DFT gradient, RPA, STAB
   Michael Roemelt        : Original ROCIS implementation
   Masaaki Saitow         : Open-shell DLPNO-CCSD energy and density
   Barbara Sandhoefer     : DKH picture change effects
   Avijit Sen             : IP-ROCIS
   Kantharuban Sivalingam : CASSCF convergence, NEVPT2, FIC-MRCI
   Bernardo de Souza      : ESD, SOC TD-DFT
   Georgi Stoychev        : AutoAux, RI-MP2 NMR, DLPNO-MP2 response
   Willem Van den Heuvel  : Paramagnetic NMR
   Boris Wezisla          : Elementary symmetry handling
   Frank Wennmohs         : Technical directorship


 We gratefully acknowledge several colleagues who have allowed us to
 interface, adapt or use parts of their codes:
   Stefan Grimme, W. Hujo, H. Kruse, P. Pracht,  : VdW corrections, initial TS optimization,
                  C. Bannwarth, S. Ehlert          DFT functionals, gCP, sTDA/sTD-DF
   Ed Valeev, F. Pavosevic, A. Kumar             : LibInt (2-el integral package), F12 methods
   Garnet Chan, S. Sharma, J. Yang, R. Olivares  : DMRG
   Ulf Ekstrom                                   : XCFun DFT Library
   Mihaly Kallay                                 : mrcc  (arbitrary order and MRCC methods)
   Jiri Pittner, Ondrej Demel                    : Mk-CCSD
   Frank Weinhold                                : gennbo (NPA and NBO analysis)
   Christopher J. Cramer and Donald G. Truhlar   : smd solvation model
   Lars Goerigk                                  : TD-DFT with DH, B97 family of functionals
   V. Asgeirsson, H. Jonsson                     : NEB implementation
   FAccTs GmbH                                   : IRC, NEB, NEB-TS, DLPNO-Multilevel, CI-OPT
                                                   MM, QMMM, 2- and 3-layer-ONIOM, Crystal-QMMM,
                                                   LR-CPCM, SF, NACMEs, symmetry and pop. for TD-DFT,
                                                   nearIR, NL-DFT gradient (VV10), updates on ESD,
                                                   ML-optimized integration grids
   S Lehtola, MJT Oliveira, MAL Marques          : LibXC Library
   Liviu Ungur et al                             : ANISO software


 Your calculation uses the libint2 library for the computation of 2-el integrals
 For citations please refer to: http://libint.valeyev.net

 Your ORCA version has been built with support for libXC version: 5.1.0
 For citations please refer to: https://tddft.org/programs/libxc/

 This ORCA versions uses:
   CBLAS   interface :  Fast vector & matrix operations
   LAPACKE interface :  Fast linear algebra routines
   SCALAPACK package :  Parallel linear algebra routines
   Shared memory     :  Shared parallel matrices
   BLAS/LAPACK       :  OpenBLAS 0.3.15  USE64BITINT DYNAMIC_ARCH NO_AFFINITY Haswell SINGLE_THREADED
        Core in use  :  Haswell
   Copyright (c) 2011-2014, The OpenBLAS Project


Your calculation utilizes the geometrical counterpoise correction gCP
Please cite in your paper:
H.Kruse, S. Grimme J.Chem.Phys., 136, (2012), 154101 
   

Your calculation utilizes the atom-pairwise dispersion correction
with the Becke-Johnson damping scheme (D3BJ)
Cite in your paper:
S.Grimme, S.Ehrlich, L.Goerigk, J Comput Chem, (2011), 32, 1456–1465 
S.Grimme, J.Antony, S.Ehrlich and H.Krieg, J.Chem.Phys., 132, (2010), 154104 
   

================================================================================

----- Orbital basis set information -----
Your calculation utilizes the basis: MINIX,
   a combination of small basis sets by S. Grimme (see manual for definitions).

================================================================================
                                        WARNINGS
                       Please study these warnings very carefully!
================================================================================

INFO   : Checking CIS options ...

INFO   : the flag for use of the SHARK integral package has been found!

================================================================================
                                       INPUT FILE
================================================================================
NAME = acrolien.613.com
|  1> ! HF-3c
|  2> !TightSCF
|  3> %scf
|  4>  ConvForced true
|  5>  convergence tight
|  6>  MaxIter 500
|  7> end
|  8>  
|  9> %tddft 
| 10>  nroots 1
| 11> end
| 12> 
| 13> # 	6103
| 14> * xyz 0 1
| 15> 		C   -1.329831  -0.354832  -0.041392
| 16> 		O   -1.332053  -1.536249   0.359494
| 17> 		C   -0.019373   0.519785   0.198080
| 18> 		C    1.246677   0.016626  -0.098966
| 19> 		H   -2.068982   0.090388  -0.787007
| 20> 		H   -0.047438   1.535464   0.569141
| 21> 		H    1.593895  -0.979908  -0.202800
| 22> 		H    1.971264   0.684598   0.042060
| 23> *
| 24> 
| 25>                          ****END OF INPUT****
================================================================================

                       ****************************
                       * Single Point Calculation *
                       ****************************

---------------------------------
CARTESIAN COORDINATES (ANGSTROEM)
---------------------------------
  C     -1.329831   -0.354832   -0.041392
  O     -1.332053   -1.536249    0.359494
  C     -0.019373    0.519785    0.198080
  C      1.246677    0.016626   -0.098966
  H     -2.068982    0.090388   -0.787007
  H     -0.047438    1.535464    0.569141
  H      1.593895   -0.979908   -0.202800
  H      1.971264    0.684598    0.042060

----------------------------
CARTESIAN COORDINATES (A.U.)
----------------------------
  NO LB      ZA    FRAG     MASS         X           Y           Z
   0 C     6.0000    0    12.011   -2.513016   -0.670535   -0.078220
   1 O     8.0000    0    15.999   -2.517215   -2.903090    0.679345
   2 C     6.0000    0    12.011   -0.036610    0.982251    0.374317
   3 C     6.0000    0    12.011    2.355878    0.031419   -0.187019
   4 H     1.0000    0     1.008   -3.909809    0.170809   -1.487228
   5 H     1.0000    0     1.008   -0.089645    2.901606    1.075521
   6 H     1.0000    0     1.008    3.012025   -1.851758   -0.383236
   7 H     1.0000    0     1.008    3.725149    1.293703    0.079482

--------------------------------
INTERNAL COORDINATES (ANGSTROEM)
--------------------------------
 C      0   0   0     0.000000000000     0.00000000     0.00000000
 O      1   0   0     1.247581921226     0.00000000     0.00000000
 C      1   2   0     1.593612846722   118.22258198     0.00000000
 C      3   1   2     1.394377247339   121.10338233    46.85424275
 H      1   2   3     1.140397640048   125.35498008   163.94899156
 H      3   1   2     1.081701317826   123.06164558   225.13757911
 H      4   3   1     1.060387595286   131.09340595   338.59247353
 H      4   3   1     0.995540680248   112.86460871   176.30597640

---------------------------
INTERNAL COORDINATES (A.U.)
---------------------------
 C      0   0   0     0.000000000000     0.00000000     0.00000000
 O      1   0   0     2.357588160748     0.00000000     0.00000000
 C      1   2   0     3.011491843803   118.22258198     0.00000000
 C      3   1   2     2.634991124842   121.10338233    46.85424275
 H      1   2   3     2.155039223460   125.35498008   163.94899156
 H      3   1   2     2.044119249393   123.06164558   225.13757911
 H      4   3   1     2.003842150897   131.09340595   338.59247353
 H      4   3   1     1.881299240847   112.86460871   176.30597640

---------------------
BASIS SET INFORMATION
---------------------
There are 3 groups of distinct atoms

 Group   1 Type C   : 6s3p contracted to 2s1p pattern {33/3}
 Group   2 Type O   : 6s3p contracted to 2s1p pattern {33/3}
 Group   3 Type H   : 3s contracted to 1s pattern {3}

Atom   0C    basis set group =>   1
Atom   1O    basis set group =>   2
Atom   2C    basis set group =>   1
Atom   3C    basis set group =>   1
Atom   4H    basis set group =>   3
Atom   5H    basis set group =>   3
Atom   6H    basis set group =>   3
Atom   7H    basis set group =>   3
------------------------------------------------------------------------------
                           ORCA GTO INTEGRAL CALCULATION
------------------------------------------------------------------------------
------------------------------------------------------------------------------
                   ___                                                        
                  /   \      - P O W E R E D   B Y -                         
                 /     \                                                     
                 |  |  |   _    _      __       _____    __    __             
                 |  |  |  | |  | |    /  \     |  _  \  |  |  /  |          
                  \  \/   | |  | |   /    \    | | | |  |  | /  /          
                 / \  \   | |__| |  /  /\  \   | |_| |  |  |/  /          
                |  |  |   |  __  | /  /__\  \  |    /   |      \           
                |  |  |   | |  | | |   __   |  |    \   |  |\   \          
                \     /   | |  | | |  |  |  |  | |\  \  |  | \   \       
                 \___/    |_|  |_| |__|  |__|  |_| \__\ |__|  \__/        
                                                                              
                      - O R C A' S   B I G   F R I E N D -                    
                                      &                                       
                       - I N T E G R A L  F E E D E R -                       
                                                                              
 v1 FN, 2020, v2 2021                                                         
------------------------------------------------------------------------------


Reading SHARK input file acrolien.613.SHARKINP.tmp ... ok
----------------------
SHARK INTEGRAL PACKAGE
----------------------

Number of atoms                             ...      8
Number of basis functions                   ...     24
Number of shells                            ...     16
Maximum angular momentum                    ...      1
Integral batch strategy                     ... SHARK/LIBINT Hybrid
RI-J (if used) integral strategy            ... SPLIT-RIJ (Revised 2003 algorithm where possible)
Printlevel                                  ...      1
Contraction scheme used                     ... SEGMENTED contraction
Coulomb Range Separation                    ... NOT USED
Exchange Range Separation                   ... NOT USED
Finite Nucleus Model                        ... NOT USED
Auxiliary Coulomb fitting basis             ... NOT available
Auxiliary J/K fitting basis                 ... NOT available
Auxiliary Correlation fitting basis         ... NOT available
Auxiliary 'external' fitting basis          ... NOT available
Integral threshold                          ...     2.500000e-11
Primitive cut-off                           ...     2.500000e-12
Primitive pair pre-selection threshold      ...     2.500000e-12

Calculating pre-screening integrals         ... done (  0.0 sec) Dimension = 16
Organizing shell pair data                  ... done (  0.4 sec)
Shell pair information
Total number of shell pairs                 ...       136
Shell pairs after pre-screening             ...       133
Total number of primitive shell pairs       ...      1224
Primitive shell pairs kept                  ...       982
          la=0 lb=0:     75 shell pairs
          la=1 lb=0:     48 shell pairs
          la=1 lb=1:     10 shell pairs

Calculating one electron integrals          ... done (  0.0 sec)
Calculating Nuclear repulsion               ... done (  0.2 sec) ENN=    100.953449138010 Eh
Calculating 4-index integrals               ... 
    -> SHARK/Ints2Disk: Thresh =     2.500000e-11 TCut=    2.500000e-12 
    -> calling libint FockFlag=2 Lmax_loc=1
    ->Total LIBINT loop time =    0.000 sec
    -> L=0 0 0 0:     0.003 sec done=      2800 (=100.0%) skipped=         0 
    -> L=1 0 0 0:     0.007 sec done=      3585 (=100.0%) skipped=         0 
    -> L=1 0 1 0:     0.004 sec done=      1176 (=100.0%) skipped=         0 
    -> L=1 1 0 0:     0.002 sec done=       749 (=100.0%) skipped=         0 
    -> L=1 1 1 0:     0.004 sec done=       480 (=100.0%) skipped=         0 
    -> L=1 1 1 1:     0.001 sec done=        55 (=100.0%) skipped=         0 
    ->Total SHARK integral loop time =    0.021 sec
    -> Total Integral generation matrix time =    0.524 sec
    -> Number of small integrals   =       585
    -> Number of medium integrals  =      2049
    -> Number of large integrals   =     40987
    -> Number of MB stored         =         0 MB


SHARK setup successfully completed in   2.2 seconds

Maximum memory used throughout the entire GTOINT-calculation: 29.5 MB
-------------------------------------------------------------------------------
                                 ORCA SCF
-------------------------------------------------------------------------------

------------
SCF SETTINGS
------------
Hamiltonian:
 Ab initio Hamiltonian  Method          .... Hartree-Fock(GTOs)


General Settings:
 Integral files         IntName         .... acrolien.613
 Hartree-Fock type      HFTyp           .... RHF
 Total Charge           Charge          ....    0
 Multiplicity           Mult            ....    1
 Number of Electrons    NEL             ....   30
 Basis Dimension        Dim             ....   24
 Nuclear Repulsion      ENuc            ....    100.9534491380 Eh

Convergence Acceleration:
 DIIS                   CNVDIIS         .... on
   Start iteration      DIISMaxIt       ....    12
   Startup error        DIISStart       ....  0.200000
   # of expansion vecs  DIISMaxEq       ....     5
   Bias factor          DIISBfac        ....   1.050
   Max. coefficient     DIISMaxC        ....  10.000
 Trust-Rad. Augm. Hess. CNVTRAH         .... auto
   Auto Start mean grad. ratio tolernc. ....  1.125000
   Auto Start start iteration           ....    20
   Auto Start num. interpolation iter.  ....    10
   Max. Number of Micro iterations      ....    16
   Max. Number of Macro iterations      .... Maxiter - #DIIS iter
   Number of Davidson start vectors     ....     2
   Converg. threshold I  (grad. norm)   ....   1.000e-05
   Converg. threshold II (energy diff.) ....   1.000e-08
   Grad. Scal. Fac. for Micro threshold ....   0.100
   Minimum threshold for Micro iter.    ....   0.010
   NR start threshold (gradient norm)   ....   0.001
   Initial trust radius                 ....   0.400
   Minimum AH scaling param. (alpha)    ....   1.000
   Maximum AH scaling param. (alpha)    .... 1000.000
   Orbital update algorithm             .... Taylor
   White noise on init. David. guess    .... on
   Maximum white noise                  ....   0.010
   Quad. conv. algorithm                .... NR
 SOSCF                  CNVSOSCF        .... on
   Start iteration      SOSCFMaxIt      ....   150
   Startup grad/error   SOSCFStart      ....  0.003300
 Level Shifting         CNVShift        .... on
   Level shift para.    LevelShift      ....    0.2500
   Turn off err/grad.   ShiftErr        ....    0.0010
 Zerner damping         CNVZerner       .... off
 Static damping         CNVDamp         .... on
   Fraction old density DampFac         ....    0.7000
   Max. Damping (<1)    DampMax         ....    0.9800
   Min. Damping (>=0)   DampMin         ....    0.0000
   Turn off err/grad.   DampErr         ....    0.1000
 Fernandez-Rico         CNVRico         .... off

SCF Procedure:
 Maximum # iterations   MaxIter         ....   500
 SCF integral mode      SCFMode         .... Conventional
 Integral Threshold     Thresh          ....  2.500e-11 Eh
 Primitive CutOff       TCut            ....  2.500e-12 Eh
 Integral Buffer length BufferLength    .... 1048576
 Integral index format  IndFormat       ....     0
 Integral value format  ValFormat       ....     0
 Integral Storage       Thresh          ....  2.500e-11 Eh

Convergence Tolerance:
 Convergence Check Mode ConvCheckMode   .... Total+1el-Energy
 Convergence forced     ConvForced      .... 1
 Energy Change          TolE            ....  1.000e-08 Eh
 1-El. energy change                    ....  1.000e-05 Eh
 Orbital Gradient       TolG            ....  1.000e-05
 Orbital Rotation angle TolX            ....  1.000e-05
 DIIS Error             TolErr          ....  5.000e-07


Diagonalization of the overlap matrix:
Smallest eigenvalue                        ... 1.960e-01
Time for diagonalization                   ...    0.000 sec
Threshold for overlap eigenvalues          ... 1.000e-08
Number of eigenvalues below threshold      ... 0
Time for construction of square roots      ...    0.000 sec
Total time needed                          ...    0.001 sec

--------------------------------
INITIAL GUESS: MINIMAL BASIS EHT
--------------------------------
The minimal basis has 24 functions
EHT matrix was diagonalized
Basis set overlap was calculated now projecting the orbitals
Using GuessMode=FMatrix for the initial guess
C*T matrix was formed
Effective Fockian was calculated
Effective Fockian was diagonalized
Initial density was built
                      ------------------
                      INITIAL GUESS DONE
                      ------------------

 InCore treatment chosen:
   Memory dedicated               ...    1024 MB
   Memory needed                  ...      0 MB
   Number of tiny    integrals    ...     585
   Number of small   integrals    ...    2049
   Number of regular integrals    ...   40987

--------------
SCF ITERATIONS
--------------
ITER       Energy         Delta-E        Max-DP      RMS-DP      [F,P]     Damp
  0   -189.0831925328   0.000000000000 0.14691915  0.01441282  0.2346588 0.7000
  1   -189.1899043205  -0.106711787768 0.11301382  0.01136678  0.1584258 0.7000
                               ***Turning on DIIS***
  2   -189.2553508020  -0.065446481505 0.06983162  0.00709034  0.1092054 0.7000
  3   -189.3398884738  -0.084537671806 0.11335208  0.01297380  0.0783387 0.0000
  4   -189.3968796228  -0.056991149002 0.01705868  0.00172148  0.0067120 0.0000
  5   -189.3959092750   0.000970347817 0.00755692  0.00079427  0.0050065 0.0000
                      *** Initiating the SOSCF procedure ***
                           *** Shutting down DIIS ***
                      *** Re-Reading the Fockian *** 
                      *** Removing any level shift *** 
ITER      Energy       Delta-E        Grad      Rot      Max-DP    RMS-DP
  6   -189.39589003   0.0000192424  0.000877  0.000877  0.002875  0.000366
  7   -189.39731364  -0.0014236051  0.000307  0.000498  0.000848  0.000116
  8   -189.39731628  -0.0000026442  0.000145  0.000538  0.001089  0.000133
  9   -189.39731724  -0.0000009595  0.000066  0.000133  0.000285  0.000028
 10   -189.39731733  -0.0000000881  0.000040  0.000101  0.000162  0.000016
 11   -189.39731736  -0.0000000348  0.000022  0.000123  0.000196  0.000018
 12   -189.39731738  -0.0000000137  0.000008  0.000021  0.000042  0.000004
 13   -189.39731738  -0.0000000013  0.000005  0.000014  0.000031  0.000003
                 **** Energy Check signals convergence ****
              ***Rediagonalizing the Fockian in SOSCF/NRSCF***

               *****************************************************
               *                     SUCCESS                       *
               *           SCF CONVERGED AFTER  14 CYCLES          *
               *****************************************************


----------------
TOTAL SCF ENERGY
----------------

Total Energy       :         -189.39731738 Eh           -5153.76302 eV

Components:
Nuclear Repulsion  :          100.95344914 Eh            2747.08301 eV
Electronic Energy  :         -290.35076652 Eh           -7900.84603 eV
One Electron Energy:         -457.06425334 Eh          -12437.35064 eV
Two Electron Energy:          166.71348682 Eh            4536.50461 eV

Virial components:
Potential Energy   :         -378.30463324 Eh          -10294.19242 eV
Kinetic Energy     :          188.90731586 Eh            5140.42940 eV
Virial Ratio       :            2.00259387


---------------
SCF CONVERGENCE
---------------

  Last Energy change         ...   -4.7379e-10  Tolerance :   1.0000e-08
  Last MAX-Density change    ...    4.0446e-06  Tolerance :   1.0000e-07
  Last RMS-Density change    ...    4.6226e-07  Tolerance :   5.0000e-09
  Last Orbital Gradient      ...    7.5739e-07  Tolerance :   1.0000e-05
  Last Orbital Rotation      ...    2.4951e-06  Tolerance :   1.0000e-05

             **** THE GBW FILE WAS UPDATED (acrolien.613.gbw) ****
             **** DENSITY acrolien.613.scfp WAS UPDATED ****
             **** ENERGY FILE WAS UPDATED (acrolien.613.en.tmp) ****
             **** THE GBW FILE WAS UPDATED (acrolien.613.gbw) ****
             **** DENSITY acrolien.613.scfp WAS UPDATED ****
----------------
ORBITAL ENERGIES
----------------

  NO   OCC          E(Eh)            E(eV) 
   0   2.0000     -20.369229      -554.2749 
   1   2.0000     -11.294033      -307.3263 
   2   2.0000     -11.187247      -304.4205 
   3   2.0000     -11.175488      -304.1005 
   4   2.0000      -1.378910       -37.5221 
   5   2.0000      -1.050402       -28.5829 
   6   2.0000      -0.876802       -23.8590 
   7   2.0000      -0.762562       -20.7504 
   8   2.0000      -0.679063       -18.4782 
   9   2.0000      -0.604029       -16.4365 
  10   2.0000      -0.598529       -16.2868 
  11   2.0000      -0.554146       -15.0791 
  12   2.0000      -0.496602       -13.5132 
  13   2.0000      -0.411863       -11.2074 
  14   2.0000      -0.379736       -10.3331 
  15   0.0000       0.145960         3.9718 
  16   0.0000       0.226876         6.1736 
  17   0.0000       0.493250        13.4220 
  18   0.0000       0.622711        16.9448 
  19   0.0000       0.627916        17.0865 
  20   0.0000       0.719409        19.5761 
  21   0.0000       0.825482        22.4625 
  22   0.0000       0.894378        24.3373 
  23   0.0000       0.953903        25.9570 

                    ********************************
                    * MULLIKEN POPULATION ANALYSIS *
                    ********************************

-----------------------
MULLIKEN ATOMIC CHARGES
-----------------------
   0 C :    0.164318
   1 O :   -0.337946
   2 C :   -0.143070
   3 C :   -0.261056
   4 H :    0.148726
   5 H :    0.143059
   6 H :    0.152868
   7 H :    0.133102
Sum of atomic charges:   -0.0000000

--------------------------------
MULLIKEN REDUCED ORBITAL CHARGES
--------------------------------
  0 C s       :     3.116063  s :     3.116063
      pz      :     0.910299  p :     2.719619
      px      :     0.980236
      py      :     0.829084
  1 O s       :     3.848880  s :     3.848880
      pz      :     1.375614  p :     4.489066
      px      :     1.736553
      py      :     1.376899
  2 C s       :     3.129102  s :     3.129102
      pz      :     0.997483  p :     3.013968
      px      :     0.966005
      py      :     1.050480
  3 C s       :     3.132330  s :     3.132330
      pz      :     0.986283  p :     3.128726
      px      :     1.040287
      py      :     1.102157
  4 H s       :     0.851274  s :     0.851274
  5 H s       :     0.856941  s :     0.856941
  6 H s       :     0.847132  s :     0.847132
  7 H s       :     0.866898  s :     0.866898


                     *******************************
                     * LOEWDIN POPULATION ANALYSIS *
                     *******************************

----------------------
LOEWDIN ATOMIC CHARGES
----------------------
   0 C :    0.150662
   1 O :   -0.251468
   2 C :   -0.098792
   3 C :   -0.158271
   4 H :    0.088646
   5 H :    0.091225
   6 H :    0.098972
   7 H :    0.079026

-------------------------------
LOEWDIN REDUCED ORBITAL CHARGES
-------------------------------
  0 C s       :     3.037916  s :     3.037916
      pz      :     0.914796  p :     2.811422
      px      :     0.992967
      py      :     0.903659
  1 O s       :     3.728862  s :     3.728862
      pz      :     1.376265  p :     4.522605
      px      :     1.736186
      py      :     1.410155
  2 C s       :     3.018180  s :     3.018180
      pz      :     0.998900  p :     3.080613
      px      :     1.021755
      py      :     1.059958
  3 C s       :     2.993881  s :     2.993881
      pz      :     0.989561  p :     3.164389
      px      :     1.076169
      py      :     1.098659
  4 H s       :     0.911354  s :     0.911354
  5 H s       :     0.908775  s :     0.908775
  6 H s       :     0.901028  s :     0.901028
  7 H s       :     0.920974  s :     0.920974


                      *****************************
                      * MAYER POPULATION ANALYSIS *
                      *****************************

  NA   - Mulliken gross atomic population
  ZA   - Total nuclear charge
  QA   - Mulliken gross atomic charge
  VA   - Mayer's total valence
  BVA  - Mayer's bonded valence
  FA   - Mayer's free valence

  ATOM       NA         ZA         QA         VA         BVA        FA
  0 C      5.8357     6.0000     0.1643     3.8590     3.8590     0.0000
  1 O      8.3379     8.0000    -0.3379     2.0652     2.0652    -0.0000
  2 C      6.1431     6.0000    -0.1431     3.9681     3.9681     0.0000
  3 C      6.2611     6.0000    -0.2611     3.9560     3.9560    -0.0000
  4 H      0.8513     1.0000     0.1487     0.9779     0.9779    -0.0000
  5 H      0.8569     1.0000     0.1431     0.9795     0.9795     0.0000
  6 H      0.8471     1.0000     0.1529     0.9766     0.9766     0.0000
  7 H      0.8669     1.0000     0.1331     0.9823     0.9823    -0.0000

  Mayer bond orders larger than 0.100000
B(  0-C ,  1-O ) :   1.9471 B(  0-C ,  2-C ) :   0.9765 B(  0-C ,  4-H ) :   0.9186 
B(  2-C ,  3-C ) :   1.9785 B(  2-C ,  5-H ) :   0.9605 B(  3-C ,  6-H ) :   0.9662 
B(  3-C ,  7-H ) :   0.9702 

-------
TIMINGS
-------

Total SCF time: 0 days 0 hours 0 min 4 sec 

Total time                  ....       4.098 sec
Sum of individual times     ....       0.755 sec  ( 18.4%)

Fock matrix formation       ....       0.111 sec  (  2.7%)
Diagonalization             ....       0.001 sec  (  0.0%)
Density matrix formation    ....       0.000 sec  (  0.0%)
Population analysis         ....       0.499 sec  ( 12.2%)
Initial guess               ....       0.002 sec  (  0.0%)
Orbital Transformation      ....       0.000 sec  (  0.0%)
Orbital Orthonormalization  ....       0.000 sec  (  0.0%)
DIIS solution               ....       0.002 sec  (  0.0%)
SOSCF solution              ....       0.140 sec  (  3.4%)

Maximum memory used throughout the entire SCF-calculation: 225.0 MB
------------------------------------------------------------------------------
                         ORCA CIS CALCULATION
------------------------------------------------------------------------------

Input orbitals are from        ... acrolien.613.gbw
CI-vector output               ... acrolien.613.cis
Tamm-Dancoff approximation     ... operative
CIS-Integral strategy          ... AO-integrals
Integral handling              ... AO integral Conventional
Reference state                ... RHF
Generation of triplets         ... off
Follow IRoot                   ... off
Number of operators            ... 1
Orbital ranges used for CIS calculation:
 Operator 0:  Orbitals   4... 14  to  15... 23
XAS localization array:
 Operator 0:  Orbitals  -1... -1

------------------------
DAVIDSON-DIAGONALIZATION
------------------------

Dimension of the eigenvalue problem            ...     99
Number of roots to be determined               ...      1
Maximum size of the expansion space            ...     10
Maximum number of iterations                   ...    100
Convergence tolerance for the residual         ...    2.500e-07
Convergence tolerance for the energies         ...    2.500e-07
Orthogonality tolerance                        ...    1.000e-14
Level Shift                                    ...    0.000e+00
Constructing the preconditioner                ... o.k.
Building the initial guess                     ... o.k.
Number of trial vectors determined             ...     10


                       ****Iteration    0****

   Memory handling for direct AO based CIS:
   Memory per vector needed      ...     1 MB
   Memory needed                 ...     0 MB
   Memory available              ...   512 MB
   Number of vectors per batch   ...   512
   Number of batches             ...     1
   Time for densities:            0.001
   SHARK[4]
   Time for Sigma-Completion:     0.000
   Size of expansion space: 3
   Lowest Energy          :     0.213425673535
   Maximum Energy change  :     0.213425673535 (vector 0)
   Maximum residual norm  :     0.014641505742

                       ****Iteration    1****
   Time for densities:            0.000
   SHARK[4]
   Time for Sigma-Completion:     0.000
   Size of expansion space: 4
   Lowest Energy          :     0.152199549818
   Maximum Energy change  :     0.061226123718 (vector 0)
   Maximum residual norm  :     0.003089111199

                       ****Iteration    2****
   Time for densities:            0.000
   SHARK[4]
   Time for Sigma-Completion:     0.000
   Size of expansion space: 5
   Lowest Energy          :     0.145342108399
   Maximum Energy change  :     0.006857441419 (vector 0)
   Maximum residual norm  :     0.000652423885

                       ****Iteration    3****
   Time for densities:            0.000
   SHARK[4]
   Time for Sigma-Completion:     0.000
   Size of expansion space: 6
   Lowest Energy          :     0.144404829772
   Maximum Energy change  :     0.000937278627 (vector 0)
   Maximum residual norm  :     0.000035939812

                       ****Iteration    4****
   Time for densities:            0.000
   SHARK[4]
   Time for Sigma-Completion:     0.000
   Size of expansion space: 7
   Lowest Energy          :     0.144333820783
   Maximum Energy change  :     0.000071008989 (vector 0)
   Maximum residual norm  :     0.000004064405

                       ****Iteration    5****
   Time for densities:            0.000
   SHARK[4]
   Time for Sigma-Completion:     0.000
   Size of expansion space: 8
   Lowest Energy          :     0.144324414226
   Maximum Energy change  :     0.000009406557 (vector 0)
   Maximum residual norm  :     0.000000430766

                       ****Iteration    6****
   Time for densities:            0.000
   SHARK[4]
   Time for Sigma-Completion:     0.000
   Size of expansion space: 9
   Lowest Energy          :     0.144323540216
   Maximum Energy change  :     0.000000874010 (vector 0)
   Maximum residual norm  :     0.000000049430

      *** CONVERGENCE OF RESIDUAL NORM REACHED ***

Storing the converged CI vectors               ... acrolien.613.cis1

                 *** DAVIDSON DONE ***

Total time for solving the CIS problem:     2.605sec

-----------------------------
CIS-EXCITED STATES (SINGLETS)
-----------------------------

the weight of the individual excitations are printed if larger than 1.0e-02

STATE  1:  E=   0.144324 au      3.927 eV    31675.4 cm**-1 <S**2> =   0.000000
     8a ->  15a  :     0.011697 (c=  0.10815419)
     9a ->  15a  :     0.010884 (c= -0.10432429)
    11a ->  15a  :     0.022010 (c=  0.14835822)
    11a ->  16a  :     0.013900 (c= -0.11789760)
    13a ->  15a  :     0.644060 (c= -0.80253352)
    13a ->  16a  :     0.209099 (c=  0.45727290)
    14a ->  15a  :     0.049944 (c= -0.22348163)
    14a ->  16a  :     0.016681 (c=  0.12915342)


----------------------
CIS-EXCITATION SPECTRA
----------------------

Center of mass = ( -0.7106, -0.7097,  0.2044)
Calculating the Dipole integrals                  ... done
Transforming integrals                            ... done
Calculating the Linear Momentum integrals         ... done
Transforming integrals                            ... done
Calculating angular momentum integrals            ... done
Transforming integrals                            ... done

-----------------------------------------------------------------------------
         ABSORPTION SPECTRUM VIA TRANSITION ELECTRIC DIPOLE MOMENTS
-----------------------------------------------------------------------------
State   Energy    Wavelength  fosc         T2        TX        TY        TZ  
        (cm-1)      (nm)                 (au**2)    (au)      (au)      (au) 
-----------------------------------------------------------------------------
   1   31675.4    315.7   0.000583769   0.00607  -0.07773  -0.00434  -0.00244

-----------------------------------------------------------------------------
         ABSORPTION SPECTRUM VIA TRANSITION VELOCITY DIPOLE MOMENTS
-----------------------------------------------------------------------------
State   Energy    Wavelength   fosc        P2         PX        PY        PZ  
        (cm-1)      (nm)                 (au**2)     (au)      (au)      (au) 
-----------------------------------------------------------------------------
   1   31675.4    315.7   0.000638405   0.00014   0.00450   0.00455   0.00986

-------------------------------------------------------------------
                             CD SPECTRUM
-------------------------------------------------------------------
State  Energy     Wavelength     R         MX        MY        MZ   
       (cm-1)       (nm)     (1e40*cgs)   (au)      (au)      (au)  
-------------------------------------------------------------------
   1   31675.4    315.7      1.49008  -0.02067  -0.48245   0.22103

-------------------------------------------------------------------
         CD SPECTRUM VIA TRANSITION VELOCITY DIPOLE MOMENTS        
-------------------------------------------------------------------
State  Energy     Wavelength     R         MX        MY        MZ   
       (cm-1)       (nm)     (1e40*cgs)   (au)      (au)      (au)  
-------------------------------------------------------------------
   1   31675.4    315.7     -0.36032  -0.02067  -0.48245   0.22103

Total run time:        3.542 sec

           *** ORCA-CIS/TD-DFT FINISHED WITHOUT ERROR ***

Maximum memory used throughout the entire CIS-calculation: 51.7 MB

-----------------------
CIS/TD-DFT TOTAL ENERGY
-----------------------

    E(SCF)  =   -189.397317380 Eh
    DE(CIS) =      0.144323540 Eh (Root  1)
    ----------------------------- ---------
    E(tot)  =   -189.252993840 Eh



-------------------------------------------------------------------------------
                          DFT DISPERSION CORRECTION                            
                                                                               
                              DFTD3 V3.1  Rev 1                                
                          USING Becke-Johnson damping                          
-------------------------------------------------------------------------------
Hartree-Fock is recognized
Active option DFTDOPT                   ...         4   

molecular C6(AA) [au] = 661.756133 


            DFT-D V3
 parameters
 using HF/MINIX parameters
 s6 scaling factor         :     1.0000 
 a1 scaling factor         :     0.4171 
 s8 scaling factor         :     0.8777 
 a2 scaling factor         :     2.9149 
 ad hoc parameters k1-k3   :    16.0000     1.3333    -4.0000 

 Edisp/kcal,au: -15.289508764879  -0.024365380549 
 E6   /kcal   :  -8.491837457 
 E8   /kcal   :  -6.797671308 
 % E8         :  44.459710330 

-------------------------   ----------------
Dispersion correction           -0.024365381
-------------------------   ----------------

------------------   -----------------
gCP+bas correction        -0.038694848
------------------   -----------------
----------------------------   ----------------
Total correction to HF/MINIX       -0.063060229
----------------------------   ----------------


-------------------------   --------------------
FINAL SINGLE POINT ENERGY      -189.316054068489
-------------------------   --------------------


                            ***************************************
                            *     ORCA property calculations      *
                            ***************************************

                                    ---------------------
                                    Active property flags
                                    ---------------------
   (+) Dipole Moment


------------------------------------------------------------------------------
                       ORCA ELECTRIC PROPERTIES CALCULATION
------------------------------------------------------------------------------

Dipole Moment Calculation                       ... on
Quadrupole Moment Calculation                   ... off
Polarizability Calculation                      ... off
GBWName                                         ... acrolien.613.gbw
Electron density                                ... acrolien.613.scfp
The origin for moment calculation is the CENTER OF MASS  = (-0.710624, -0.709737  0.204370)

-------------
DIPOLE MOMENT
-------------
                                X             Y             Z
Electronic contribution:     -2.60792      -1.73646       0.43564
Nuclear contribution   :      2.75622       2.64055      -0.75733
                        -----------------------------------------
Total Dipole Moment    :      0.14831       0.90409      -0.32169
                        -----------------------------------------
Magnitude (a.u.)       :      0.97101
Magnitude (Debye)      :      2.46810



--------------------
Rotational spectrum 
--------------------
 
Rotational constants in cm-1:     0.731006     0.183128     0.153079 
Rotational constants in MHz : 21915.008931  5490.027027  4589.183985 

 Dipole components along the rotational axes: 
x,y,z [a.u.] :    -0.612287    -0.715477     0.236746 
x,y,z [Debye]:    -1.556309    -1.818597     0.601760 

 

Timings for individual modules:

Sum of individual times         ...       11.135 sec (=   0.186 min)
GTO integral calculation        ...        2.895 sec (=   0.048 min)  26.0 %
SCF iterations                  ...        4.640 sec (=   0.077 min)  41.7 %
CIS module                      ...        3.599 sec (=   0.060 min)  32.3 %
                             ****ORCA TERMINATED NORMALLY****
TOTAL RUN TIME: 0 days 0 hours 0 minutes 12 seconds 980 msec
