
                                 *****************
                                 * O   R   C   A *
                                 *****************

                                            #,                                       
                                            ###                                      
                                            ####                                     
                                            #####                                    
                                            ######                                   
                                           ########,                                 
                                     ,,################,,,,,                         
                               ,,#################################,,                 
                          ,,##########################################,,             
                       ,#########################################, ''#####,          
                    ,#############################################,,   '####,        
                  ,##################################################,,,,####,       
                ,###########''''           ''''###############################       
              ,#####''   ,,,,##########,,,,          '''####'''          '####       
            ,##' ,,,,###########################,,,                        '##       
           ' ,,###''''                  '''############,,,                           
         ,,##''                                '''############,,,,        ,,,,,,###''
      ,#''                                            '''#######################'''  
     '                                                          ''''####''''         
             ,#######,   #######,   ,#######,      ##                                
            ,#'     '#,  ##    ##  ,#'     '#,    #''#        ######   ,####,        
            ##       ##  ##   ,#'  ##            #'  '#       #        #'  '#        
            ##       ##  #######   ##           ,######,      #####,   #    #        
            '#,     ,#'  ##    ##  '#,     ,#' ,#      #,         ##   #,  ,#        
             '#######'   ##     ##  '#######'  #'      '#     #####' # '####'        



                  #######################################################
                  #                        -***-                        #
                  #          Department of theory and spectroscopy      #
                  #    Directorship and core code : Frank Neese         #
                  #        Max Planck Institute fuer Kohlenforschung    #
                  #                Kaiser Wilhelm Platz 1               #
                  #                 D-45470 Muelheim/Ruhr               #
                  #                      Germany                        #
                  #                                                     #
                  #                  All rights reserved                #
                  #                        -***-                        #
                  #######################################################


                         Program Version 5.0.3 -  RELEASE  -


 With contributions from (in alphabetic order):
   Daniel Aravena         : Magnetic Suceptibility
   Michael Atanasov       : Ab Initio Ligand Field Theory (pilot matlab implementation)
   Alexander A. Auer      : GIAO ZORA, VPT2 properties, NMR spectrum
   Ute Becker             : Parallelization
   Giovanni Bistoni       : ED, misc. LED, open-shell LED, HFLD
   Martin Brehm           : Molecular dynamics
   Dmytro Bykov           : SCF Hessian
   Vijay G. Chilkuri      : MRCI spin determinant printing, contributions to CSF-ICE
   Dipayan Datta          : RHF DLPNO-CCSD density
   Achintya Kumar Dutta   : EOM-CC, STEOM-CC
   Dmitry Ganyushin       : Spin-Orbit,Spin-Spin,Magnetic field MRCI
   Miquel Garcia          : C-PCM and meta-GGA Hessian, CC/C-PCM, Gaussian charge scheme
   Yang Guo               : DLPNO-NEVPT2, F12-NEVPT2, CIM, IAO-localization
   Andreas Hansen         : Spin unrestricted coupled pair/coupled cluster methods
   Benjamin Helmich-Paris : MC-RPA, TRAH-SCF, COSX integrals
   Lee Huntington         : MR-EOM, pCC
   Robert Izsak           : Overlap fitted RIJCOSX, COSX-SCS-MP3, EOM
   Marcus Kettner         : VPT2
   Christian Kollmar      : KDIIS, OOCD, Brueckner-CCSD(T), CCSD density, CASPT2, CASPT2-K
   Simone Kossmann        : Meta GGA functionals, TD-DFT gradient, OOMP2, MP2 Hessian
   Martin Krupicka        : Initial AUTO-CI
   Lucas Lang             : DCDCAS
   Marvin Lechner         : AUTO-CI (C++ implementation), FIC-MRCC
   Dagmar Lenk            : GEPOL surface, SMD
   Dimitrios Liakos       : Extrapolation schemes; Compound Job, initial MDCI parallelization
   Dimitrios Manganas     : Further ROCIS development; embedding schemes
   Dimitrios Pantazis     : SARC Basis sets
   Anastasios Papadopoulos: AUTO-CI, single reference methods and gradients
   Taras Petrenko         : DFT Hessian,TD-DFT gradient, ASA, ECA, R-Raman, ABS, FL, XAS/XES, NRVS
   Peter Pinski           : DLPNO-MP2, DLPNO-MP2 Gradient
   Christoph Reimann      : Effective Core Potentials
   Marius Retegan         : Local ZFS, SOC
   Christoph Riplinger    : Optimizer, TS searches, QM/MM, DLPNO-CCSD(T), (RO)-DLPNO pert. Triples
   Tobias Risthaus        : Range-separated hybrids, TD-DFT gradient, RPA, STAB
   Michael Roemelt        : Original ROCIS implementation
   Masaaki Saitow         : Open-shell DLPNO-CCSD energy and density
   Barbara Sandhoefer     : DKH picture change effects
   Avijit Sen             : IP-ROCIS
   Kantharuban Sivalingam : CASSCF convergence, NEVPT2, FIC-MRCI
   Bernardo de Souza      : ESD, SOC TD-DFT
   Georgi Stoychev        : AutoAux, RI-MP2 NMR, DLPNO-MP2 response
   Willem Van den Heuvel  : Paramagnetic NMR
   Boris Wezisla          : Elementary symmetry handling
   Frank Wennmohs         : Technical directorship


 We gratefully acknowledge several colleagues who have allowed us to
 interface, adapt or use parts of their codes:
   Stefan Grimme, W. Hujo, H. Kruse, P. Pracht,  : VdW corrections, initial TS optimization,
                  C. Bannwarth, S. Ehlert          DFT functionals, gCP, sTDA/sTD-DF
   Ed Valeev, F. Pavosevic, A. Kumar             : LibInt (2-el integral package), F12 methods
   Garnet Chan, S. Sharma, J. Yang, R. Olivares  : DMRG
   Ulf Ekstrom                                   : XCFun DFT Library
   Mihaly Kallay                                 : mrcc  (arbitrary order and MRCC methods)
   Jiri Pittner, Ondrej Demel                    : Mk-CCSD
   Frank Weinhold                                : gennbo (NPA and NBO analysis)
   Christopher J. Cramer and Donald G. Truhlar   : smd solvation model
   Lars Goerigk                                  : TD-DFT with DH, B97 family of functionals
   V. Asgeirsson, H. Jonsson                     : NEB implementation
   FAccTs GmbH                                   : IRC, NEB, NEB-TS, DLPNO-Multilevel, CI-OPT
                                                   MM, QMMM, 2- and 3-layer-ONIOM, Crystal-QMMM,
                                                   LR-CPCM, SF, NACMEs, symmetry and pop. for TD-DFT,
                                                   nearIR, NL-DFT gradient (VV10), updates on ESD,
                                                   ML-optimized integration grids
   S Lehtola, MJT Oliveira, MAL Marques          : LibXC Library
   Liviu Ungur et al                             : ANISO software


 Your calculation uses the libint2 library for the computation of 2-el integrals
 For citations please refer to: http://libint.valeyev.net

 Your ORCA version has been built with support for libXC version: 5.1.0
 For citations please refer to: https://tddft.org/programs/libxc/

 This ORCA versions uses:
   CBLAS   interface :  Fast vector & matrix operations
   LAPACKE interface :  Fast linear algebra routines
   SCALAPACK package :  Parallel linear algebra routines
   Shared memory     :  Shared parallel matrices
   BLAS/LAPACK       :  OpenBLAS 0.3.15  USE64BITINT DYNAMIC_ARCH NO_AFFINITY Haswell SINGLE_THREADED
        Core in use  :  Haswell
   Copyright (c) 2011-2014, The OpenBLAS Project


================================================================================

----- Orbital basis set information -----
Your calculation utilizes the basis: cc-pVDZ 
       H, B-Ne : Obtained from the ccRepo (grant-hill.group.shef.ac.uk/ccrepo) Feb. 2017
                 T. H. Dunning, Jr., J. Chem. Phys. 90, 1007 (1989)
            He : Obtained from the ccRepo (grant-hill.group.shef.ac.uk/ccrepo) Feb. 2017
                 D. E. Woon, T. H. Dunning, Jr., J. Chem. Phys. 100, 2975 (1994)
  Li-Be, Na-Mg : Obtained from the ccRepo (grant-hill.group.shef.ac.uk/ccrepo) Feb. 2017
                 B. P. Prascher, D. E. Woon, K. A. Peterson, T. H. Dunning, Jr., A. K. Wilson, Theor. Chem. Acc. 128, 69 (2011)
         Al-Ar : Obtained from the ccRepo (grant-hill.group.shef.ac.uk/ccrepo) Feb. 2017
                 D. E. Woon, T. H. Dunning, Jr., J. Chem. Phys. 98, 1358 (1993)
            Ca : Obtained from the Peterson Research Group Website (tyr0.chem.wsu.edu/~kipeters) Feb. 2017
                 J. Koput, K. A. Peterson, J. Phys. Chem. 106, 9595 (2002)
         Sc-Zn : Obtained from the ccRepo (grant-hill.group.shef.ac.uk/ccrepo) Feb. 2017
                 N. B. Balabanov, K. A. Peterson, J. Chem. Phys. 123, 064107 (2005)
                 N. B. Balabanov, K. A. Peterson, J. Chem. Phys. 125, 074110 (2006)
         Ga-Kr : Obtained from the ccRepo (grant-hill.group.shef.ac.uk/ccrepo) Feb. 2017
                 A. K. Wilson, D. E. Woon, K. A. Peterson, T. H. Dunning, Jr., J. Chem. Phys. 110, 7667 (1999)

----- AuxJ basis set information -----
Your calculation utilizes the auxiliary basis: def2/J
   F. Weigend, Phys. Chem. Chem. Phys. 8, 1057 (2006).

================================================================================
                                        WARNINGS
                       Please study these warnings very carefully!
================================================================================

INFO   : Checking CIS options ...

INFO   : the flag for use of the SHARK integral package has been found!

================================================================================
                                       INPUT FILE
================================================================================
NAME = acrolien.670.com
|  1> ! B3LYP cc-pVDZ
|  2> !TightSCF
|  3> %scf
|  4>  ConvForced true
|  5>  convergence tight
|  6>  MaxIter 500
|  7> end
|  8>  
|  9> %tddft 
| 10>  nroots 1
| 11> end
| 12> 
| 13> # 	22139
| 14> * xyz 0 1
| 15> 		C   -0.605867  -0.460219   0.012843
| 16> 		O   -0.561887  -1.647797  -0.006453
| 17> 		C    0.630277   0.476794  -0.013904
| 18> 		C    1.850969  -0.149262   0.017251
| 19> 		H   -1.607649   0.134014  -0.019362
| 20> 		H    0.455753   1.595360   0.034190
| 21> 		H    1.841199  -1.206671   0.005607
| 22> 		H    2.845703   0.459943  -0.115639
| 23> *
| 24> 
| 25>                          ****END OF INPUT****
================================================================================

                       ****************************
                       * Single Point Calculation *
                       ****************************

---------------------------------
CARTESIAN COORDINATES (ANGSTROEM)
---------------------------------
  C     -0.605867   -0.460219    0.012843
  O     -0.561887   -1.647797   -0.006453
  C      0.630277    0.476794   -0.013904
  C      1.850969   -0.149262    0.017251
  H     -1.607649    0.134014   -0.019362
  H      0.455753    1.595360    0.034190
  H      1.841199   -1.206671    0.005607
  H      2.845703    0.459943   -0.115639

----------------------------
CARTESIAN COORDINATES (A.U.)
----------------------------
  NO LB      ZA    FRAG     MASS         X           Y           Z
   0 C     6.0000    0    12.011   -1.144923   -0.869688    0.024270
   1 O     8.0000    0    15.999   -1.061813   -3.113885   -0.012194
   2 C     6.0000    0    12.011    1.191051    0.901010   -0.026275
   3 C     6.0000    0    12.011    3.497824   -0.282064    0.032600
   4 H     1.0000    0     1.008   -3.038016    0.253250   -0.036589
   5 H     1.0000    0     1.008    0.861248    3.014793    0.064610
   6 H     1.0000    0     1.008    3.479362   -2.280278    0.010596
   7 H     1.0000    0     1.008    5.377599    0.869166   -0.218526

--------------------------------
INTERNAL COORDINATES (ANGSTROEM)
--------------------------------
 C      0   0   0     0.000000000000     0.00000000     0.00000000
 O      1   0   0     1.188548729375     0.00000000     0.00000000
 C      1   2   0     1.551373827584   125.01085872     0.00000000
 C      3   1   2     1.372226551275   115.64941149   356.25372945
 H      1   2   3     1.165211223701   122.74674630   175.65959272
 H      3   1   2     1.133120274185   118.21457132   181.46380025
 H      4   3   1     1.057518240465   116.59737958     3.07849490
 H      4   3   1     1.174004350452   120.95855438   173.34591441

---------------------------
INTERNAL COORDINATES (A.U.)
---------------------------
 C      0   0   0     0.000000000000     0.00000000     0.00000000
 O      1   0   0     2.246031595340     0.00000000     0.00000000
 C      1   2   0     2.931671665468   125.01085872     0.00000000
 C      3   1   2     2.593132375606   115.64941149   356.25372945
 H      1   2   3     2.201930100966   122.74674630   175.65959272
 H      3   1   2     2.141286995002   118.21457132   181.46380025
 H      4   3   1     1.998419856106   116.59737958     3.07849490
 H      4   3   1     2.218546702387   120.95855438   173.34591441

---------------------
BASIS SET INFORMATION
---------------------
There are 3 groups of distinct atoms

 Group   1 Type C   : 17s4p1d contracted to 3s2p1d pattern {881/31/1}
 Group   2 Type O   : 17s4p1d contracted to 3s2p1d pattern {881/31/1}
 Group   3 Type H   : 4s1p contracted to 2s1p pattern {31/1}

Atom   0C    basis set group =>   1
Atom   1O    basis set group =>   2
Atom   2C    basis set group =>   1
Atom   3C    basis set group =>   1
Atom   4H    basis set group =>   3
Atom   5H    basis set group =>   3
Atom   6H    basis set group =>   3
Atom   7H    basis set group =>   3
---------------------------------
AUXILIARY/J BASIS SET INFORMATION
---------------------------------
There are 3 groups of distinct atoms

 Group   1 Type C   : 12s5p4d2f1g contracted to 6s4p3d1f1g pattern {711111/2111/211/2/1}
 Group   2 Type O   : 12s5p4d2f1g contracted to 6s4p3d1f1g pattern {711111/2111/211/2/1}
 Group   3 Type H   : 5s2p1d contracted to 3s1p1d pattern {311/2/1}

Atom   0C    basis set group =>   1
Atom   1O    basis set group =>   2
Atom   2C    basis set group =>   1
Atom   3C    basis set group =>   1
Atom   4H    basis set group =>   3
Atom   5H    basis set group =>   3
Atom   6H    basis set group =>   3
Atom   7H    basis set group =>   3
------------------------------------------------------------------------------
                           ORCA GTO INTEGRAL CALCULATION
                           -- RI-GTO INTEGRALS CHOSEN --
------------------------------------------------------------------------------
------------------------------------------------------------------------------
                   ___                                                        
                  /   \      - P O W E R E D   B Y -                         
                 /     \                                                     
                 |  |  |   _    _      __       _____    __    __             
                 |  |  |  | |  | |    /  \     |  _  \  |  |  /  |          
                  \  \/   | |  | |   /    \    | | | |  |  | /  /          
                 / \  \   | |__| |  /  /\  \   | |_| |  |  |/  /          
                |  |  |   |  __  | /  /__\  \  |    /   |      \           
                |  |  |   | |  | | |   __   |  |    \   |  |\   \          
                \     /   | |  | | |  |  |  |  | |\  \  |  | \   \       
                 \___/    |_|  |_| |__|  |__|  |_| \__\ |__|  \__/        
                                                                              
                      - O R C A' S   B I G   F R I E N D -                    
                                      &                                       
                       - I N T E G R A L  F E E D E R -                       
                                                                              
 v1 FN, 2020, v2 2021                                                         
------------------------------------------------------------------------------


Reading SHARK input file acrolien.670.SHARKINP.tmp ... ok
----------------------
SHARK INTEGRAL PACKAGE
----------------------

Number of atoms                             ...      8
Number of basis functions                   ...    100
Number of shells                            ...     60
Maximum angular momentum                    ...      2
Integral batch strategy                     ... SHARK/LIBINT Hybrid
RI-J (if used) integral strategy            ... SPLIT-RIJ (Revised 2003 algorithm where possible)
Printlevel                                  ...      1
Contraction scheme used                     ... PARTIAL GENERAL contraction
Coulomb Range Separation                    ... NOT USED
Exchange Range Separation                   ... NOT USED
Finite Nucleus Model                        ... NOT USED
Auxiliary Coulomb fitting basis             ... AVAILABLE
   # of basis functions in Aux-J            ...    240
   # of shells in Aux-J                     ...     80
   Maximum angular momentum in Aux-J        ...      4
Auxiliary J/K fitting basis                 ... NOT available
Auxiliary Correlation fitting basis         ... NOT available
Auxiliary 'external' fitting basis          ... NOT available
Integral threshold                          ...     2.500000e-11
Primitive cut-off                           ...     2.500000e-12
Primitive pair pre-selection threshold      ...     2.500000e-12

Calculating pre-screening integrals         ... done (  0.0 sec) Dimension = 60
Calculating pre-screening integrals (ORCA)  ... done (  0.3 sec) Dimension = 36
Organizing shell pair data                  ... done (  0.6 sec)
Shell pair information
Total number of shell pairs                 ...      1830
Shell pairs after pre-screening             ...      1530
Total number of primitive shell pairs       ...      2950
Primitive shell pairs kept                  ...      2279
          la=0 lb=0:    724 shell pairs
          la=1 lb=0:    499 shell pairs
          la=1 lb=1:     78 shell pairs
          la=2 lb=0:    171 shell pairs
          la=2 lb=1:     48 shell pairs
          la=2 lb=2:     10 shell pairs

Calculating one electron integrals          ... done (  0.0 sec)
Calculating RI/J V-Matrix + Cholesky decomp.... done (  0.5 sec)
Calculating Nuclear repulsion               ... done (  0.4 sec) ENN=    103.225799828802 Eh

SHARK setup successfully completed in   4.3 seconds

Maximum memory used throughout the entire GTOINT-calculation: 14.2 MB
-------------------------------------------------------------------------------
                                 ORCA SCF
-------------------------------------------------------------------------------

------------
SCF SETTINGS
------------
Hamiltonian:
 Density Functional     Method          .... DFT(GTOs)
 Exchange Functional    Exchange        .... B88
   X-Alpha parameter    XAlpha          ....  0.666667
   Becke's b parameter  XBeta           ....  0.004200
 Correlation Functional Correlation     .... LYP
 LDA part of GGA corr.  LDAOpt          .... VWN-5
 Gradients option       PostSCFGGA      .... off
 Hybrid DFT is turned on
   Fraction HF Exchange ScalHFX         ....  0.200000
   Scaling of DF-GGA-X  ScalDFX         ....  0.720000
   Scaling of DF-GGA-C  ScalDFC         ....  0.810000
   Scaling of DF-LDA-C  ScalLDAC        ....  1.000000
   Perturbative correction              ....  0.000000
   Density functional embedding theory  .... OFF
   NL short-range parameter             ....  4.800000
 RI-approximation to the Coulomb term is turned on
   Number of AuxJ basis functions       .... 240
   RIJ-COSX (HFX calculated with COS-X)).... on


General Settings:
 Integral files         IntName         .... acrolien.670
 Hartree-Fock type      HFTyp           .... RHF
 Total Charge           Charge          ....    0
 Multiplicity           Mult            ....    1
 Number of Electrons    NEL             ....   30
 Basis Dimension        Dim             ....   76
 Nuclear Repulsion      ENuc            ....    103.2257998288 Eh

Convergence Acceleration:
 DIIS                   CNVDIIS         .... on
   Start iteration      DIISMaxIt       ....    12
   Startup error        DIISStart       ....  0.200000
   # of expansion vecs  DIISMaxEq       ....     5
   Bias factor          DIISBfac        ....   1.050
   Max. coefficient     DIISMaxC        ....  10.000
 Trust-Rad. Augm. Hess. CNVTRAH         .... auto
   Auto Start mean grad. ratio tolernc. ....  1.125000
   Auto Start start iteration           ....    20
   Auto Start num. interpolation iter.  ....    10
   Max. Number of Micro iterations      ....    16
   Max. Number of Macro iterations      .... Maxiter - #DIIS iter
   Number of Davidson start vectors     ....     2
   Converg. threshold I  (grad. norm)   ....   1.000e-05
   Converg. threshold II (energy diff.) ....   1.000e-08
   Grad. Scal. Fac. for Micro threshold ....   0.100
   Minimum threshold for Micro iter.    ....   0.010
   NR start threshold (gradient norm)   ....   0.001
   Initial trust radius                 ....   0.400
   Minimum AH scaling param. (alpha)    ....   1.000
   Maximum AH scaling param. (alpha)    .... 1000.000
   Orbital update algorithm             .... Taylor
   White noise on init. David. guess    .... on
   Maximum white noise                  ....   0.010
   Quad. conv. algorithm                .... NR
 SOSCF                  CNVSOSCF        .... on
   Start iteration      SOSCFMaxIt      ....   150
   Startup grad/error   SOSCFStart      ....  0.003300
 Level Shifting         CNVShift        .... on
   Level shift para.    LevelShift      ....    0.2500
   Turn off err/grad.   ShiftErr        ....    0.0010
 Zerner damping         CNVZerner       .... off
 Static damping         CNVDamp         .... on
   Fraction old density DampFac         ....    0.7000
   Max. Damping (<1)    DampMax         ....    0.9800
   Min. Damping (>=0)   DampMin         ....    0.0000
   Turn off err/grad.   DampErr         ....    0.1000
 Fernandez-Rico         CNVRico         .... off

SCF Procedure:
 Maximum # iterations   MaxIter         ....   500
 SCF integral mode      SCFMode         .... Direct
   Integral package                     .... SHARK and LIBINT hybrid scheme
 Reset frequency        DirectResetFreq ....    20
 Integral Threshold     Thresh          ....  2.500e-11 Eh
 Primitive CutOff       TCut            ....  2.500e-12 Eh

Convergence Tolerance:
 Convergence Check Mode ConvCheckMode   .... Total+1el-Energy
 Convergence forced     ConvForced      .... 1
 Energy Change          TolE            ....  1.000e-08 Eh
 1-El. energy change                    ....  1.000e-05 Eh
 Orbital Gradient       TolG            ....  1.000e-05
 Orbital Rotation angle TolX            ....  1.000e-05
 DIIS Error             TolErr          ....  5.000e-07


Diagonalization of the overlap matrix:
Smallest eigenvalue                        ... 3.404e-03
Time for diagonalization                   ...    0.001 sec
Threshold for overlap eigenvalues          ... 1.000e-08
Number of eigenvalues below threshold      ... 0
Time for construction of square roots      ...    0.564 sec
Total time needed                          ...    0.565 sec

Time for model grid setup =    0.829 sec

------------------------------
INITIAL GUESS: MODEL POTENTIAL
------------------------------
Loading Hartree-Fock densities                     ... done
Calculating cut-offs                               ... done
Initializing the effective Hamiltonian             ... done
Setting up the integral package (SHARK)            ... done
Starting the Coulomb interaction                   ... done (   1.6 sec)
Reading the grid                                   ... done
Mapping shells                                     ... done
Starting the XC term evaluation                    ... done (   0.1 sec)
  promolecular density results
     # of electrons  =     29.999396473
     EX              =    -24.703440219
     EC              =     -0.992827233
     EX+EC           =    -25.696267452
Transforming the Hamiltonian                       ... done (   0.0 sec)
Diagonalizing the Hamiltonian                      ... done (   0.0 sec)
Back transforming the eigenvectors                 ... done (   0.0 sec)
Now organizing SCF variables                       ... done
                      ------------------
                      INITIAL GUESS DONE (   3.4 sec)
                      ------------------
-------------------
DFT GRID GENERATION
-------------------

General Integration Accuracy     IntAcc      ... 4.388
Radial Grid Type                 RadialGrid  ... OptM3 with GC (2021)
Angular Grid (max. ang.)         AngularGrid ... 4 (Lebedev-302)
Angular grid pruning method      GridPruning ... 4 (adaptive)
Weight generation scheme         WeightScheme... Becke
Basis function cutoff            BFCut       ... 1.0000e-11
Integration weight cutoff        WCut        ... 1.0000e-14
Angular grids for H and He will be reduced by one unit
Partially contracted basis set               ... off
Rotationally invariant grid construction     ... off

Total number of grid points                  ...    37409
Total number of batches                      ...      588
Average number of points per batch           ...       63
Average number of grid points per atom       ...     4676
Time for grid setup =    0.278 sec

--------------------
COSX GRID GENERATION
--------------------

GRIDX 1
-------
General Integration Accuracy     IntAcc      ... 3.816
Radial Grid Type                 RadialGrid  ... OptM3 with GC (2021)
Angular Grid (max. ang.)         AngularGrid ... 1 (Lebedev-50)
Angular grid pruning method      GridPruning ... 4 (adaptive)
Weight generation scheme         WeightScheme... Becke
Basis function cutoff            BFCut       ... 1.0000e-11
Integration weight cutoff        WCut        ... 1.0000e-14
Angular grids for H and He will be reduced by one unit
Partially contracted basis set               ... on
Rotationally invariant grid construction     ... off

Total number of grid points                  ...     4794
Total number of batches                      ...       78
Average number of points per batch           ...       61
Average number of grid points per atom       ...      599
UseSFitting                                  ... on

GRIDX 2
-------
General Integration Accuracy     IntAcc      ... 4.020
Radial Grid Type                 RadialGrid  ... OptM3 with GC (2021)
Angular Grid (max. ang.)         AngularGrid ... 2 (Lebedev-110)
Angular grid pruning method      GridPruning ... 4 (adaptive)
Weight generation scheme         WeightScheme... Becke
Basis function cutoff            BFCut       ... 1.0000e-11
Integration weight cutoff        WCut        ... 1.0000e-14
Angular grids for H and He will be reduced by one unit
Partially contracted basis set               ... on
Rotationally invariant grid construction     ... off

Total number of grid points                  ...    10555
Total number of batches                      ...      169
Average number of points per batch           ...       62
Average number of grid points per atom       ...     1319
UseSFitting                                  ... on

GRIDX 3
-------
General Integration Accuracy     IntAcc      ... 4.338
Radial Grid Type                 RadialGrid  ... OptM3 with GC (2021)
Angular Grid (max. ang.)         AngularGrid ... 3 (Lebedev-194)
Angular grid pruning method      GridPruning ... 4 (adaptive)
Weight generation scheme         WeightScheme... Becke
Basis function cutoff            BFCut       ... 1.0000e-11
Integration weight cutoff        WCut        ... 1.0000e-14
Angular grids for H and He will be reduced by one unit
Partially contracted basis set               ... on
Rotationally invariant grid construction     ... off

Total number of grid points                  ...    23286
Total number of batches                      ...      368
Average number of points per batch           ...       63
Average number of grid points per atom       ...     2911
UseSFitting                                  ... on

Time for X-Grid setup             =   12.236 sec

 re-compute Schwartz prescreening matrix in partically contracted basis (1) ...done (   0.083 sec)
--------------
SCF ITERATIONS
--------------
ITER       Energy         Delta-E        Max-DP      RMS-DP      [F,P]     Damp
               ***  Starting incremental Fock matrix formation  ***
  0   -191.6747705934   0.000000000000 0.09648413  0.00388500  0.2534261 0.7000
  1   -191.7354017560  -0.060631162656 0.05573911  0.00243186  0.0965327 0.7000
                               ***Turning on DIIS***
  2   -191.7552263215  -0.019824565423 0.05471611  0.00322093  0.0290812 0.0000
  3   -191.7916381700  -0.036411848504 0.03711101  0.00179330  0.0472716 0.0000
  4   -191.7976711272  -0.006032957264 0.00931087  0.00052127  0.0212413 0.0000
                      *** Initiating the SOSCF procedure ***
                           *** Shutting down DIIS ***
                      *** Re-Reading the Fockian *** 
                      *** Removing any level shift *** 
ITER      Energy       Delta-E        Grad      Rot      Max-DP    RMS-DP
  5   -191.79856299  -0.0008918593  0.000562  0.000562  0.003048  0.000142
               *** Restarting incremental Fock matrix formation ***
  6   -191.79862911  -0.0000661185  0.000340  0.001020  0.001709  0.000096
  7   -191.79862834   0.0000007683  0.000559  0.000640  0.001178  0.000046
  8   -191.79863165  -0.0000033145  0.000156  0.000259  0.000482  0.000029
  9   -191.79863155   0.0000001054  0.000134  0.000109  0.000211  0.000012
 10   -191.79863193  -0.0000003881  0.000012  0.000048  0.000061  0.000003
 11   -191.79863193   0.0000000003  0.000020  0.000035  0.000031  0.000001
 12   -191.79863194  -0.0000000039  0.000003  0.000006  0.000016  0.000001
 13   -191.79863194   0.0000000011  0.000003  0.000003  0.000008  0.000000
                 **** Energy Check signals convergence ****
              ***Rediagonalizing the Fockian in SOSCF/NRSCF***

               *****************************************************
               *                     SUCCESS                       *
               *           SCF CONVERGED AFTER  14 CYCLES          *
               *****************************************************

Old exchange energy                            =     -5.010108192 Eh
New exchange energy                            =     -5.010089159 Eh
Exchange energy change after final integration =      0.000019033 Eh
Total energy after final integration           =   -191.798612905 Eh
Final COS-X integration done in                =     1.485 sec

----------------
TOTAL SCF ENERGY
----------------

Total Energy       :         -191.79861290 Eh           -5219.10559 eV

Components:
Nuclear Repulsion  :          103.22579983 Eh            2808.91682 eV
Electronic Energy  :         -295.02441273 Eh           -8028.02241 eV
One Electron Energy:         -463.74708762 Eh          -12619.19980 eV
Two Electron Energy:          168.72267489 Eh            4591.17739 eV
Max COSX asymmetry :            0.00000114 Eh               0.00003 eV

Virial components:
Potential Energy   :         -382.16017778 Eh          -10399.10712 eV
Kinetic Energy     :          190.36156488 Eh            5180.00153 eV
Virial Ratio       :            2.00754905


DFT components:
N(Alpha)           :       14.999997378699 electrons
N(Beta)            :       14.999997378699 electrons
N(Total)           :       29.999994757398 electrons
E(X)               :      -19.923204038194 Eh       
E(C)               :       -1.179461783653 Eh       
E(XC)              :      -21.102665821847 Eh       
DFET-embed. en.    :        0.000000000000 Eh       

---------------
SCF CONVERGENCE
---------------

  Last Energy change         ...   -1.0314e-09  Tolerance :   1.0000e-08
  Last MAX-Density change    ...    2.8892e-15  Tolerance :   1.0000e-07
  Last RMS-Density change    ...    6.3813e-17  Tolerance :   5.0000e-09
  Last Orbital Gradient      ...    1.7801e-07  Tolerance :   1.0000e-05
  Last Orbital Rotation      ...    2.8790e-07  Tolerance :   1.0000e-05

             **** THE GBW FILE WAS UPDATED (acrolien.670.gbw) ****
             **** DENSITY acrolien.670.scfp WAS UPDATED ****
             **** ENERGY FILE WAS UPDATED (acrolien.670.en.tmp) ****
             **** THE GBW FILE WAS UPDATED (acrolien.670.gbw) ****
             **** DENSITY acrolien.670.scfp WAS UPDATED ****
----------------
ORBITAL ENERGIES
----------------

  NO   OCC          E(Eh)            E(eV) 
   0   2.0000     -19.146044      -520.9904 
   1   2.0000     -10.284111      -279.8449 
   2   2.0000     -10.218757      -278.0665 
   3   2.0000     -10.214373      -277.9472 
   4   2.0000      -1.063413       -28.9369 
   5   2.0000      -0.779694       -21.2165 
   6   2.0000      -0.639447       -17.4002 
   7   2.0000      -0.535828       -14.5806 
   8   2.0000      -0.496953       -13.5228 
   9   2.0000      -0.450585       -12.2611 
  10   2.0000      -0.415576       -11.3084 
  11   2.0000      -0.405817       -11.0428 
  12   2.0000      -0.385924       -10.5015 
  13   2.0000      -0.283401        -7.7117 
  14   2.0000      -0.258132        -7.0241 
  15   0.0000      -0.066420        -1.8074 
  16   0.0000       0.049839         1.3562 
  17   0.0000       0.063245         1.7210 
  18   0.0000       0.086686         2.3588 
  19   0.0000       0.112100         3.0504 
  20   0.0000       0.146340         3.9821 
  21   0.0000       0.247796         6.7429 
  22   0.0000       0.267566         7.2809 
  23   0.0000       0.278684         7.5834 
  24   0.0000       0.422999        11.5104 
  25   0.0000       0.431562        11.7434 
  26   0.0000       0.454056        12.3555 
  27   0.0000       0.499024        13.5791 
  28   0.0000       0.511069        13.9069 
  29   0.0000       0.526350        14.3227 
  30   0.0000       0.565919        15.3994 
  31   0.0000       0.598013        16.2728 
  32   0.0000       0.634479        17.2651 
  33   0.0000       0.666482        18.1359 
  34   0.0000       0.682461        18.5707 
  35   0.0000       0.748114        20.3572 
  36   0.0000       0.782041        21.2804 
  37   0.0000       0.852755        23.2047 
  38   0.0000       0.888521        24.1779 
  39   0.0000       0.959036        26.0967 
  40   0.0000       0.973102        26.4795 
  41   0.0000       1.005412        27.3586 
  42   0.0000       1.023769        27.8582 
  43   0.0000       1.043189        28.3866 
  44   0.0000       1.055660        28.7260 
  45   0.0000       1.138641        30.9840 
  46   0.0000       1.163070        31.6487 
  47   0.0000       1.304003        35.4837 
  48   0.0000       1.404076        38.2068 
  49   0.0000       1.474889        40.1338 
  50   0.0000       1.479241        40.2522 
  51   0.0000       1.530485        41.6466 
  52   0.0000       1.533694        41.7339 
  53   0.0000       1.572417        42.7876 
  54   0.0000       1.609210        43.7888 
  55   0.0000       1.631641        44.3992 
  56   0.0000       1.687888        45.9298 
  57   0.0000       1.711775        46.5798 
  58   0.0000       1.753911        47.7263 
  59   0.0000       1.805452        49.1288 
  60   0.0000       1.879878        51.1541 
  61   0.0000       1.900713        51.7210 
  62   0.0000       1.996564        54.3293 
  63   0.0000       2.032038        55.2946 
  64   0.0000       2.097379        57.0726 
  65   0.0000       2.193292        59.6825 
  66   0.0000       2.263540        61.5941 
  67   0.0000       2.330415        63.4138 
  68   0.0000       2.513639        68.3996 
  69   0.0000       2.652177        72.1694 
  70   0.0000       2.681225        72.9598 
  71   0.0000       2.729186        74.2649 
  72   0.0000       2.893578        78.7383 
  73   0.0000       3.077097        83.7321 
  74   0.0000       3.400201        92.5242 
  75   0.0000       3.469134        94.3999 

                    ********************************
                    * MULLIKEN POPULATION ANALYSIS *
                    ********************************

-----------------------
MULLIKEN ATOMIC CHARGES
-----------------------
   0 C :    0.170513
   1 O :   -0.166533
   2 C :   -0.149739
   3 C :    0.057066
   4 H :   -0.012980
   5 H :    0.014001
   6 H :    0.033119
   7 H :    0.054554
Sum of atomic charges:   -0.0000000

--------------------------------
MULLIKEN REDUCED ORBITAL CHARGES
--------------------------------
  0 C s       :     3.128830  s :     3.128830
      pz      :     0.756121  p :     2.555133
      px      :     0.918505
      py      :     0.880507
      dz2     :     0.005479  d :     0.145524
      dxz     :     0.004320
      dyz     :     0.030474
      dx2y2   :     0.032159
      dxy     :     0.073092
  1 O s       :     3.734434  s :     3.734434
      pz      :     1.282786  p :     4.412326
      px      :     1.758879
      py      :     1.370661
      dz2     :     0.002188  d :     0.019773
      dxz     :     0.000017
      dyz     :     0.006093
      dx2y2   :     0.006924
      dxy     :     0.004552
  2 C s       :     3.226304  s :     3.226304
      pz      :     0.994788  p :     2.871003
      px      :     0.954134
      py      :     0.922081
      dz2     :     0.003239  d :     0.052432
      dxz     :     0.006261
      dyz     :     0.003487
      dx2y2   :     0.019718
      dxy     :     0.019727
  3 C s       :     3.110115  s :     3.110115
      pz      :     0.886560  p :     2.793001
      px      :     0.949346
      py      :     0.957095
      dz2     :     0.000834  d :     0.039818
      dxz     :     0.007285
      dyz     :     0.001641
      dx2y2   :     0.017459
      dxy     :     0.012600
  4 H s       :     0.989312  s :     0.989312
      pz      :     0.002600  p :     0.023668
      px      :     0.014849
      py      :     0.006219
  5 H s       :     0.959322  s :     0.959322
      pz      :     0.005238  p :     0.026677
      px      :     0.003681
      py      :     0.017759
  6 H s       :     0.935355  s :     0.935355
      pz      :     0.005551  p :     0.031527
      px      :     0.005652
      py      :     0.020324
  7 H s       :     0.919451  s :     0.919451
      pz      :     0.004454  p :     0.025995
      px      :     0.013712
      py      :     0.007829


                     *******************************
                     * LOEWDIN POPULATION ANALYSIS *
                     *******************************

----------------------
LOEWDIN ATOMIC CHARGES
----------------------
   0 C :   -0.043216
   1 O :    0.018772
   2 C :   -0.086422
   3 C :    0.016404
   4 H :   -0.006818
   5 H :    0.033165
   6 H :    0.020517
   7 H :    0.047598

-------------------------------
LOEWDIN REDUCED ORBITAL CHARGES
-------------------------------
  0 C s       :     2.894866  s :     2.894866
      pz      :     0.746400  p :     2.765806
      px      :     1.007579
      py      :     1.011827
      dz2     :     0.020848  d :     0.382544
      dxz     :     0.008753
      dyz     :     0.061596
      dx2y2   :     0.086198
      dxy     :     0.205149
  1 O s       :     3.480264  s :     3.480264
      pz      :     1.259302  p :     4.466338
      px      :     1.715173
      py      :     1.491863
      dz2     :     0.004741  d :     0.034627
      dxz     :     0.000016
      dyz     :     0.007023
      dx2y2   :     0.014672
      dxy     :     0.008175
  2 C s       :     2.890387  s :     2.890387
      pz      :     0.958690  p :     3.034154
      px      :     1.058213
      py      :     1.017251
      dz2     :     0.012964  d :     0.161881
      dxz     :     0.016062
      dyz     :     0.006972
      dx2y2   :     0.062760
      dxy     :     0.063123
  3 C s       :     2.877379  s :     2.877379
      pz      :     0.863198  p :     2.974371
      px      :     1.050291
      py      :     1.060882
      dz2     :     0.008904  d :     0.131846
      dxz     :     0.015157
      dyz     :     0.004376
      dx2y2   :     0.058465
      dxy     :     0.044945
  4 H s       :     0.940020  s :     0.940020
      pz      :     0.007879  p :     0.066797
      px      :     0.041175
      py      :     0.017744
  5 H s       :     0.893040  s :     0.893040
      pz      :     0.015059  p :     0.073795
      px      :     0.012411
      py      :     0.046324
  6 H s       :     0.885691  s :     0.885691
      pz      :     0.017728  p :     0.093792
      px      :     0.018046
      py      :     0.058019
  7 H s       :     0.887104  s :     0.887104
      pz      :     0.012010  p :     0.065298
      px      :     0.032919
      py      :     0.020369


                      *****************************
                      * MAYER POPULATION ANALYSIS *
                      *****************************

  NA   - Mulliken gross atomic population
  ZA   - Total nuclear charge
  QA   - Mulliken gross atomic charge
  VA   - Mayer's total valence
  BVA  - Mayer's bonded valence
  FA   - Mayer's free valence

  ATOM       NA         ZA         QA         VA         BVA        FA
  0 C      5.8295     6.0000     0.1705     4.1525     4.1525     0.0000
  1 O      8.1665     8.0000    -0.1665     2.3861     2.3861    -0.0000
  2 C      6.1497     6.0000    -0.1497     3.9706     3.9706    -0.0000
  3 C      5.9429     6.0000     0.0571     3.9309     3.9309    -0.0000
  4 H      1.0130     1.0000    -0.0130     0.9604     0.9604    -0.0000
  5 H      0.9860     1.0000     0.0140     0.9820     0.9820    -0.0000
  6 H      0.9669     1.0000     0.0331     1.0100     1.0100    -0.0000
  7 H      0.9454     1.0000     0.0546     0.9703     0.9703     0.0000

  Mayer bond orders larger than 0.100000
B(  0-C ,  1-O ) :   2.2127 B(  0-C ,  2-C ) :   1.0052 B(  0-C ,  4-H ) :   0.9007 
B(  2-C ,  3-C ) :   1.9539 B(  2-C ,  5-H ) :   0.9470 B(  3-C ,  6-H ) :   0.9283 
B(  3-C ,  7-H ) :   0.9480 

-------
TIMINGS
-------

Total SCF time: 0 days 0 hours 2 min 52 sec 

Total time                  ....     172.789 sec
Sum of individual times     ....     131.994 sec  ( 76.4%)

Fock matrix formation       ....     113.019 sec  ( 65.4%)
  Split-RI-J                ....       0.963 sec  (  0.9% of F)
  Chain of spheres X        ....       9.406 sec  (  8.3% of F)
  XC integration            ....      43.364 sec  ( 38.4% of F)
    Basis function eval.    ....       1.885 sec  (  4.3% of XC)
    Density eval.           ....       0.812 sec  (  1.9% of XC)
    XC-Functional eval.     ....       0.785 sec  (  1.8% of XC)
    XC-Potential eval.      ....       0.640 sec  (  1.5% of XC)
Diagonalization             ....       0.007 sec  (  0.0%)
Density matrix formation    ....       0.001 sec  (  0.0%)
Population analysis         ....       0.039 sec  (  0.0%)
Initial guess               ....       2.532 sec  (  1.5%)
Orbital Transformation      ....       0.000 sec  (  0.0%)
Orbital Orthonormalization  ....       0.000 sec  (  0.0%)
DIIS solution               ....       1.451 sec  (  0.8%)
SOSCF solution              ....       1.604 sec  (  0.9%)
Grid generation             ....      13.342 sec  (  7.7%)

Maximum memory used throughout the entire SCF-calculation: 51.7 MB
------------------------------------------------------------------------------
                        ORCA TD-DFT/TDA CALCULATION
------------------------------------------------------------------------------

Input orbitals are from        ... acrolien.670.gbw
CI-vector output               ... acrolien.670.cis
Tamm-Dancoff approximation     ... operative
CIS-Integral strategy          ... AO-integrals
Integral handling              ... AO integral Direct
Max. core memory used          ... 512 MB
Reference state                ... RHF
Generation of triplets         ... off
Follow IRoot                   ... off
Number of operators            ... 1
Orbital ranges used for CIS calculation:
 Operator 0:  Orbitals   4... 14  to  15... 75
XAS localization array:
 Operator 0:  Orbitals  -1... -1

-------------------
XC-INTEGRATION GRID
-------------------

General Integration Accuracy     IntAcc      ... 3.467
Radial Grid Type                 RadialGrid  ... OptM3 with GC (2021)
Angular Grid (max. ang.)         AngularGrid ... 1 (Lebedev-50)
Angular grid pruning method      GridPruning ... 4 (adaptive)
Weight generation scheme         WeightScheme... Becke
Basis function cutoff            BFCut       ... 1.0000e-11
Integration weight cutoff        WCut        ... 1.0000e-14
Angular grids for H and He will be reduced by one unit
Partially contracted basis set               ... off
Rotationally invariant grid construction     ... off

Total number of grid points                  ...     5484
Total number of batches                      ...       91
Average number of points per batch           ...       60
Average number of grid points per atom       ...      686

---------------------
COSX-INTEGRATION GRID
---------------------

General Integration Accuracy     IntAcc      ... 3.067
Radial Grid Type                 RadialGrid  ... OptM3 with GC (2021)
Angular Grid (max. ang.)         AngularGrid ... 1 (Lebedev-50)
Angular grid pruning method      GridPruning ... 4 (adaptive)
Weight generation scheme         WeightScheme... Becke
Basis function cutoff            BFCut       ... 1.0000e-11
Integration weight cutoff        WCut        ... 1.0000e-14
Angular grids for H and He will be reduced by one unit
Partially contracted basis set               ... on
Rotationally invariant grid construction     ... off

Total number of grid points                  ...     2504
Total number of batches                      ...       45
Average number of points per batch           ...       55
Average number of grid points per atom       ...      313

---------------
TD-DFT XC SETUP
---------------

DFT calculation                         ... on
Name of the grid file                   ... acrolien.670.grid_cis.tmp
Exchange functional (TD-DFT)            ... B88
   X-Alpha parameter    XAlpha (TD-DFT) ...  0.666667
   Becke's b parameter  XBeta (TD-DFT)  ...  0.004200
Correlation functional (TD-DFT)         ... LYP
 LDA part of GGA corr.  LDAOpt (TD-DFT) ... VWN-5
Hybrid DFT                              ... on
   Exchange mixing (TD-DFT)             ...  0.200
   GGA exch. scaling (TD-DFT)           ...  0.720
   GGA corr. scaling (TD-DFT)           ...  0.810

Building densities             ... done
Calculating rho(r) on the grid ... done
Building xc-kernel on the grid ... done
                    *** TD-DFT CALCULATION INITIALIZED ***

------------------------
DAVIDSON-DIAGONALIZATION
------------------------

Dimension of the eigenvalue problem            ...    671
Number of roots to be determined               ...      1
Maximum size of the expansion space            ...     10
Maximum number of iterations                   ...    100
Convergence tolerance for the residual         ...    2.500e-07
Convergence tolerance for the energies         ...    2.500e-07
Orthogonality tolerance                        ...    1.000e-14
Level Shift                                    ...    0.000e+00
Constructing the preconditioner                ... o.k.
Building the initial guess                     ... o.k.
Number of trial vectors determined             ...     10


                       ****Iteration    0****

   Memory handling for direct AO based CIS:
   Memory per vector needed      ...     1 MB
   Memory needed                 ...     0 MB
   Memory available              ...   512 MB
   Number of vectors per batch   ...   512
   Number of batches             ...     1
   Time for densities:            0.000
   Time for RI-J (Direct):        0.071
   Time for K (COSX):             0.232
   Time for XC-Integration:       0.080
   Time for Sigma-Completion:     0.000
   Size of expansion space: 3
   Lowest Energy          :     0.136101632669
   Maximum Energy change  :     0.136101632669 (vector 0)
   Maximum residual norm  :     0.001127361212

                       ****Iteration    1****
   Time for densities:            0.000
   Time for RI-J (Direct):        0.054
   Time for K (COSX):             1.587
   Time for XC-Integration:       0.042
   Time for Sigma-Completion:     0.000
   Size of expansion space: 4
   Lowest Energy          :     0.134807779862
   Maximum Energy change  :     0.001293852807 (vector 0)
   Maximum residual norm  :     0.000054993180

                       ****Iteration    2****
   Time for densities:            0.000
   Time for RI-J (Direct):        0.055
   Time for K (COSX):             0.193
   Time for XC-Integration:       0.042
   Time for Sigma-Completion:     0.000
   Size of expansion space: 5
   Lowest Energy          :     0.134748089845
   Maximum Energy change  :     0.000059690017 (vector 0)
   Maximum residual norm  :     0.000005894984

                       ****Iteration    3****
   Time for densities:            0.000
   Time for RI-J (Direct):        0.055
   Time for K (COSX):             2.245
   Time for XC-Integration:       0.042
   Time for Sigma-Completion:     0.000
   Size of expansion space: 6
   Lowest Energy          :     0.134742481493
   Maximum Energy change  :     0.000005608353 (vector 0)
   Maximum residual norm  :     0.000000715796

                       ****Iteration    4****
   Time for densities:            0.000
   Time for RI-J (Direct):        0.054
   Time for K (COSX):             0.192
   Time for XC-Integration:       0.042
   Time for Sigma-Completion:     0.000
   Size of expansion space: 7
   Lowest Energy          :     0.134741833639
   Maximum Energy change  :     0.000000647854 (vector 0)
   Maximum residual norm  :     0.000000054180

      *** CONVERGENCE OF RESIDUAL NORM REACHED ***

Storing the converged CI vectors               ... acrolien.670.cis1

                 *** DAVIDSON DONE ***

Total time for solving the CIS problem:     8.194sec

------------------------------------
TD-DFT/TDA EXCITED STATES (SINGLETS)
------------------------------------

the weight of the individual excitations are printed if larger than 1.0e-02

STATE  1:  E=   0.134742 au      3.667 eV    29572.4 cm**-1 <S**2> =   0.000000
    14a ->  15a  :     0.980570 (c=  0.99023723)
    14a ->  16a  :     0.014372 (c=  0.11988435)


-----------------------------
TD-DFT/TDA-EXCITATION SPECTRA
-----------------------------

Center of mass = (  0.5763, -0.9089, -0.0002)
Calculating the Dipole integrals                  ... done
Transforming integrals                            ... done
Calculating the Linear Momentum integrals         ... done
Transforming integrals                            ... done
Calculating angular momentum integrals            ... done
Transforming integrals                            ... done

-----------------------------------------------------------------------------
         ABSORPTION SPECTRUM VIA TRANSITION ELECTRIC DIPOLE MOMENTS
-----------------------------------------------------------------------------
State   Energy    Wavelength  fosc         T2        TX        TY        TZ  
        (cm-1)      (nm)                 (au**2)    (au)      (au)      (au) 
-----------------------------------------------------------------------------
   1   29572.4    338.2   0.000180097   0.00200   0.03081   0.00235   0.03241

-----------------------------------------------------------------------------
         ABSORPTION SPECTRUM VIA TRANSITION VELOCITY DIPOLE MOMENTS
-----------------------------------------------------------------------------
State   Energy    Wavelength   fosc        P2         PX        PY        PZ  
        (cm-1)      (nm)                 (au**2)     (au)      (au)      (au) 
-----------------------------------------------------------------------------
   1   29572.4    338.2   0.001215184   0.00025   0.00026  -0.00020  -0.01567

-------------------------------------------------------------------
                             CD SPECTRUM
-------------------------------------------------------------------
State  Energy     Wavelength     R         MX        MY        MZ   
       (cm-1)       (nm)     (1e40*cgs)   (au)      (au)      (au)  
-------------------------------------------------------------------
   1   29572.4    338.2      1.06805   0.03065   0.31509   0.01789

-------------------------------------------------------------------
         CD SPECTRUM VIA TRANSITION VELOCITY DIPOLE MOMENTS        
-------------------------------------------------------------------
State  Energy     Wavelength     R         MX        MY        MZ   
       (cm-1)       (nm)     (1e40*cgs)   (au)      (au)      (au)  
-------------------------------------------------------------------
   1   29572.4    338.2     -1.17861   0.03065   0.31509   0.01789

Total run time:       12.355 sec

           *** ORCA-CIS/TD-DFT FINISHED WITHOUT ERROR ***

Maximum memory used throughout the entire CIS-calculation: 48.6 MB

-----------------------
CIS/TD-DFT TOTAL ENERGY
-----------------------

    E(SCF)  =   -191.798612905 Eh
    DE(CIS) =      0.134741834 Eh (Root  1)
    ----------------------------- ---------
    E(tot)  =   -191.663871071 Eh


-------------------------   --------------------
FINAL SINGLE POINT ENERGY      -191.663871071247
-------------------------   --------------------


                            ***************************************
                            *     ORCA property calculations      *
                            ***************************************

                                    ---------------------
                                    Active property flags
                                    ---------------------
   (+) Dipole Moment


------------------------------------------------------------------------------
                       ORCA ELECTRIC PROPERTIES CALCULATION
------------------------------------------------------------------------------

Dipole Moment Calculation                       ... on
Quadrupole Moment Calculation                   ... off
Polarizability Calculation                      ... off
GBWName                                         ... acrolien.670.gbw
Electron density                                ... acrolien.670.scfp
The origin for moment calculation is the CENTER OF MASS  = ( 0.576343, -0.908942 -0.000160)

-------------
DIPOLE MOMENT
-------------
                                X             Y             Z
Electronic contribution:     -1.82523      -1.89332       0.08228
Nuclear contribution   :      2.15911       2.70966      -0.08909
                        -----------------------------------------
Total Dipole Moment    :      0.33388       0.81633      -0.00681
                        -----------------------------------------
Magnitude (a.u.)       :      0.88200
Magnitude (Debye)      :      2.24186



--------------------
Rotational spectrum 
--------------------
 
Rotational constants in cm-1:     0.717355     0.207131     0.160796 
Rotational constants in MHz : 21505.765224  6209.634370  4820.534703 

 Dipole components along the rotational axes: 
x,y,z [a.u.] :     0.721075    -0.507867    -0.006434 
x,y,z [Debye]:     1.832827    -1.290896    -0.016355 

 

Timings for individual modules:

Sum of individual times         ...      190.302 sec (=   3.172 min)
GTO integral calculation        ...        5.128 sec (=   0.085 min)   2.7 %
SCF iterations                  ...      172.811 sec (=   2.880 min)  90.8 %
CIS module                      ...       12.363 sec (=   0.206 min)   6.5 %
                             ****ORCA TERMINATED NORMALLY****
TOTAL RUN TIME: 0 days 0 hours 3 minutes 13 seconds 736 msec
