
                                 *****************
                                 * O   R   C   A *
                                 *****************

                                            #,                                       
                                            ###                                      
                                            ####                                     
                                            #####                                    
                                            ######                                   
                                           ########,                                 
                                     ,,################,,,,,                         
                               ,,#################################,,                 
                          ,,##########################################,,             
                       ,#########################################, ''#####,          
                    ,#############################################,,   '####,        
                  ,##################################################,,,,####,       
                ,###########''''           ''''###############################       
              ,#####''   ,,,,##########,,,,          '''####'''          '####       
            ,##' ,,,,###########################,,,                        '##       
           ' ,,###''''                  '''############,,,                           
         ,,##''                                '''############,,,,        ,,,,,,###''
      ,#''                                            '''#######################'''  
     '                                                          ''''####''''         
             ,#######,   #######,   ,#######,      ##                                
            ,#'     '#,  ##    ##  ,#'     '#,    #''#        ######   ,####,        
            ##       ##  ##   ,#'  ##            #'  '#       #        #'  '#        
            ##       ##  #######   ##           ,######,      #####,   #    #        
            '#,     ,#'  ##    ##  '#,     ,#' ,#      #,         ##   #,  ,#        
             '#######'   ##     ##  '#######'  #'      '#     #####' # '####'        



                  #######################################################
                  #                        -***-                        #
                  #          Department of theory and spectroscopy      #
                  #    Directorship and core code : Frank Neese         #
                  #        Max Planck Institute fuer Kohlenforschung    #
                  #                Kaiser Wilhelm Platz 1               #
                  #                 D-45470 Muelheim/Ruhr               #
                  #                      Germany                        #
                  #                                                     #
                  #                  All rights reserved                #
                  #                        -***-                        #
                  #######################################################


                         Program Version 5.0.3 -  RELEASE  -


 With contributions from (in alphabetic order):
   Daniel Aravena         : Magnetic Suceptibility
   Michael Atanasov       : Ab Initio Ligand Field Theory (pilot matlab implementation)
   Alexander A. Auer      : GIAO ZORA, VPT2 properties, NMR spectrum
   Ute Becker             : Parallelization
   Giovanni Bistoni       : ED, misc. LED, open-shell LED, HFLD
   Martin Brehm           : Molecular dynamics
   Dmytro Bykov           : SCF Hessian
   Vijay G. Chilkuri      : MRCI spin determinant printing, contributions to CSF-ICE
   Dipayan Datta          : RHF DLPNO-CCSD density
   Achintya Kumar Dutta   : EOM-CC, STEOM-CC
   Dmitry Ganyushin       : Spin-Orbit,Spin-Spin,Magnetic field MRCI
   Miquel Garcia          : C-PCM and meta-GGA Hessian, CC/C-PCM, Gaussian charge scheme
   Yang Guo               : DLPNO-NEVPT2, F12-NEVPT2, CIM, IAO-localization
   Andreas Hansen         : Spin unrestricted coupled pair/coupled cluster methods
   Benjamin Helmich-Paris : MC-RPA, TRAH-SCF, COSX integrals
   Lee Huntington         : MR-EOM, pCC
   Robert Izsak           : Overlap fitted RIJCOSX, COSX-SCS-MP3, EOM
   Marcus Kettner         : VPT2
   Christian Kollmar      : KDIIS, OOCD, Brueckner-CCSD(T), CCSD density, CASPT2, CASPT2-K
   Simone Kossmann        : Meta GGA functionals, TD-DFT gradient, OOMP2, MP2 Hessian
   Martin Krupicka        : Initial AUTO-CI
   Lucas Lang             : DCDCAS
   Marvin Lechner         : AUTO-CI (C++ implementation), FIC-MRCC
   Dagmar Lenk            : GEPOL surface, SMD
   Dimitrios Liakos       : Extrapolation schemes; Compound Job, initial MDCI parallelization
   Dimitrios Manganas     : Further ROCIS development; embedding schemes
   Dimitrios Pantazis     : SARC Basis sets
   Anastasios Papadopoulos: AUTO-CI, single reference methods and gradients
   Taras Petrenko         : DFT Hessian,TD-DFT gradient, ASA, ECA, R-Raman, ABS, FL, XAS/XES, NRVS
   Peter Pinski           : DLPNO-MP2, DLPNO-MP2 Gradient
   Christoph Reimann      : Effective Core Potentials
   Marius Retegan         : Local ZFS, SOC
   Christoph Riplinger    : Optimizer, TS searches, QM/MM, DLPNO-CCSD(T), (RO)-DLPNO pert. Triples
   Tobias Risthaus        : Range-separated hybrids, TD-DFT gradient, RPA, STAB
   Michael Roemelt        : Original ROCIS implementation
   Masaaki Saitow         : Open-shell DLPNO-CCSD energy and density
   Barbara Sandhoefer     : DKH picture change effects
   Avijit Sen             : IP-ROCIS
   Kantharuban Sivalingam : CASSCF convergence, NEVPT2, FIC-MRCI
   Bernardo de Souza      : ESD, SOC TD-DFT
   Georgi Stoychev        : AutoAux, RI-MP2 NMR, DLPNO-MP2 response
   Willem Van den Heuvel  : Paramagnetic NMR
   Boris Wezisla          : Elementary symmetry handling
   Frank Wennmohs         : Technical directorship


 We gratefully acknowledge several colleagues who have allowed us to
 interface, adapt or use parts of their codes:
   Stefan Grimme, W. Hujo, H. Kruse, P. Pracht,  : VdW corrections, initial TS optimization,
                  C. Bannwarth, S. Ehlert          DFT functionals, gCP, sTDA/sTD-DF
   Ed Valeev, F. Pavosevic, A. Kumar             : LibInt (2-el integral package), F12 methods
   Garnet Chan, S. Sharma, J. Yang, R. Olivares  : DMRG
   Ulf Ekstrom                                   : XCFun DFT Library
   Mihaly Kallay                                 : mrcc  (arbitrary order and MRCC methods)
   Jiri Pittner, Ondrej Demel                    : Mk-CCSD
   Frank Weinhold                                : gennbo (NPA and NBO analysis)
   Christopher J. Cramer and Donald G. Truhlar   : smd solvation model
   Lars Goerigk                                  : TD-DFT with DH, B97 family of functionals
   V. Asgeirsson, H. Jonsson                     : NEB implementation
   FAccTs GmbH                                   : IRC, NEB, NEB-TS, DLPNO-Multilevel, CI-OPT
                                                   MM, QMMM, 2- and 3-layer-ONIOM, Crystal-QMMM,
                                                   LR-CPCM, SF, NACMEs, symmetry and pop. for TD-DFT,
                                                   nearIR, NL-DFT gradient (VV10), updates on ESD,
                                                   ML-optimized integration grids
   S Lehtola, MJT Oliveira, MAL Marques          : LibXC Library
   Liviu Ungur et al                             : ANISO software


 Your calculation uses the libint2 library for the computation of 2-el integrals
 For citations please refer to: http://libint.valeyev.net

 Your ORCA version has been built with support for libXC version: 5.1.0
 For citations please refer to: https://tddft.org/programs/libxc/

 This ORCA versions uses:
   CBLAS   interface :  Fast vector & matrix operations
   LAPACKE interface :  Fast linear algebra routines
   SCALAPACK package :  Parallel linear algebra routines
   Shared memory     :  Shared parallel matrices
   BLAS/LAPACK       :  OpenBLAS 0.3.15  USE64BITINT DYNAMIC_ARCH NO_AFFINITY Haswell SINGLE_THREADED
        Core in use  :  Haswell
   Copyright (c) 2011-2014, The OpenBLAS Project


================================================================================

----- Orbital basis set information -----
Your calculation utilizes the basis: cc-pVDZ 
       H, B-Ne : Obtained from the ccRepo (grant-hill.group.shef.ac.uk/ccrepo) Feb. 2017
                 T. H. Dunning, Jr., J. Chem. Phys. 90, 1007 (1989)
            He : Obtained from the ccRepo (grant-hill.group.shef.ac.uk/ccrepo) Feb. 2017
                 D. E. Woon, T. H. Dunning, Jr., J. Chem. Phys. 100, 2975 (1994)
  Li-Be, Na-Mg : Obtained from the ccRepo (grant-hill.group.shef.ac.uk/ccrepo) Feb. 2017
                 B. P. Prascher, D. E. Woon, K. A. Peterson, T. H. Dunning, Jr., A. K. Wilson, Theor. Chem. Acc. 128, 69 (2011)
         Al-Ar : Obtained from the ccRepo (grant-hill.group.shef.ac.uk/ccrepo) Feb. 2017
                 D. E. Woon, T. H. Dunning, Jr., J. Chem. Phys. 98, 1358 (1993)
            Ca : Obtained from the Peterson Research Group Website (tyr0.chem.wsu.edu/~kipeters) Feb. 2017
                 J. Koput, K. A. Peterson, J. Phys. Chem. 106, 9595 (2002)
         Sc-Zn : Obtained from the ccRepo (grant-hill.group.shef.ac.uk/ccrepo) Feb. 2017
                 N. B. Balabanov, K. A. Peterson, J. Chem. Phys. 123, 064107 (2005)
                 N. B. Balabanov, K. A. Peterson, J. Chem. Phys. 125, 074110 (2006)
         Ga-Kr : Obtained from the ccRepo (grant-hill.group.shef.ac.uk/ccrepo) Feb. 2017
                 A. K. Wilson, D. E. Woon, K. A. Peterson, T. H. Dunning, Jr., J. Chem. Phys. 110, 7667 (1999)

----- AuxJ basis set information -----
Your calculation utilizes the auxiliary basis: def2/J
   F. Weigend, Phys. Chem. Chem. Phys. 8, 1057 (2006).

================================================================================
                                        WARNINGS
                       Please study these warnings very carefully!
================================================================================

INFO   : Checking CIS options ...

INFO   : the flag for use of the SHARK integral package has been found!

================================================================================
                                       INPUT FILE
================================================================================
NAME = acrolien.565.com
|  1> ! B3LYP cc-pVDZ
|  2> !TightSCF
|  3> %scf
|  4>  ConvForced true
|  5>  convergence tight
|  6>  MaxIter 500
|  7> end
|  8>  
|  9> %tddft 
| 10>  nroots 1
| 11> end
| 12> 
| 13> # 	24631
| 14> * xyz 0 1
| 15> 		C   -0.523199  -0.409020  -0.074447
| 16> 		O   -0.577949  -1.643082   0.031249
| 17> 		C    0.593845   0.461442   0.045824
| 18> 		C    1.839108  -0.171717  -0.011076
| 19> 		H   -1.438669   0.046698   0.090687
| 20> 		H    0.470260   1.507325  -0.009953
| 21> 		H    1.825042  -1.369604  -0.157029
| 22> 		H    2.551993   0.552132   0.057781
| 23> *
| 24> 
| 25>                          ****END OF INPUT****
================================================================================

                       ****************************
                       * Single Point Calculation *
                       ****************************

---------------------------------
CARTESIAN COORDINATES (ANGSTROEM)
---------------------------------
  C     -0.523199   -0.409020   -0.074447
  O     -0.577949   -1.643082    0.031249
  C      0.593845    0.461442    0.045824
  C      1.839108   -0.171717   -0.011076
  H     -1.438669    0.046698    0.090687
  H      0.470260    1.507325   -0.009953
  H      1.825042   -1.369604   -0.157029
  H      2.551993    0.552132    0.057781

----------------------------
CARTESIAN COORDINATES (A.U.)
----------------------------
  NO LB      ZA    FRAG     MASS         X           Y           Z
   0 C     6.0000    0    12.011   -0.988703   -0.772936   -0.140684
   1 O     8.0000    0    15.999   -1.092165   -3.104975    0.059052
   2 C     6.0000    0    12.011    1.122204    0.871999    0.086595
   3 C     6.0000    0    12.011    3.475410   -0.324498   -0.020931
   4 H     1.0000    0     1.008   -2.718690    0.088246    0.171374
   5 H     1.0000    0     1.008    0.888663    2.848431   -0.018808
   6 H     1.0000    0     1.008    3.448830   -2.588176   -0.296742
   7 H     1.0000    0     1.008    4.822568    1.043378    0.109190

--------------------------------
INTERNAL COORDINATES (ANGSTROEM)
--------------------------------
 C      0   0   0     0.000000000000     0.00000000     0.00000000
 O      1   0   0     1.239789589713     0.00000000     0.00000000
 C      1   2   0     1.421251738722   129.57785424     0.00000000
 C      3   1   2     1.398144437621   114.78506214    15.27045826
 H      1   2   3     1.035873281044   112.66144784   202.49361424
 H      3   1   2     1.054635280864   120.71730600   183.99805857
 H      4   3   1     1.206827823401   116.36210105     0.16200012
 H      4   3   1     1.018284677521   107.38957309   178.36376138

---------------------------
INTERNAL COORDINATES (A.U.)
---------------------------
 C      0   0   0     0.000000000000     0.00000000     0.00000000
 O      1   0   0     2.342862788244     0.00000000     0.00000000
 C      1   2   0     2.685776553544   129.57785424     0.00000000
 C      3   1   2     2.642110082769   114.78506214    15.27045826
 H      1   2   3     1.957516810619   112.66144784   202.49361424
 H      3   1   2     1.992971852004   120.71730600   183.99805857
 H      4   3   1     2.280574077024   116.36210105     0.16200012
 H      4   3   1     1.924279166884   107.38957309   178.36376138

---------------------
BASIS SET INFORMATION
---------------------
There are 3 groups of distinct atoms

 Group   1 Type C   : 17s4p1d contracted to 3s2p1d pattern {881/31/1}
 Group   2 Type O   : 17s4p1d contracted to 3s2p1d pattern {881/31/1}
 Group   3 Type H   : 4s1p contracted to 2s1p pattern {31/1}

Atom   0C    basis set group =>   1
Atom   1O    basis set group =>   2
Atom   2C    basis set group =>   1
Atom   3C    basis set group =>   1
Atom   4H    basis set group =>   3
Atom   5H    basis set group =>   3
Atom   6H    basis set group =>   3
Atom   7H    basis set group =>   3
---------------------------------
AUXILIARY/J BASIS SET INFORMATION
---------------------------------
There are 3 groups of distinct atoms

 Group   1 Type C   : 12s5p4d2f1g contracted to 6s4p3d1f1g pattern {711111/2111/211/2/1}
 Group   2 Type O   : 12s5p4d2f1g contracted to 6s4p3d1f1g pattern {711111/2111/211/2/1}
 Group   3 Type H   : 5s2p1d contracted to 3s1p1d pattern {311/2/1}

Atom   0C    basis set group =>   1
Atom   1O    basis set group =>   2
Atom   2C    basis set group =>   1
Atom   3C    basis set group =>   1
Atom   4H    basis set group =>   3
Atom   5H    basis set group =>   3
Atom   6H    basis set group =>   3
Atom   7H    basis set group =>   3
------------------------------------------------------------------------------
                           ORCA GTO INTEGRAL CALCULATION
                           -- RI-GTO INTEGRALS CHOSEN --
------------------------------------------------------------------------------
------------------------------------------------------------------------------
                   ___                                                        
                  /   \      - P O W E R E D   B Y -                         
                 /     \                                                     
                 |  |  |   _    _      __       _____    __    __             
                 |  |  |  | |  | |    /  \     |  _  \  |  |  /  |          
                  \  \/   | |  | |   /    \    | | | |  |  | /  /          
                 / \  \   | |__| |  /  /\  \   | |_| |  |  |/  /          
                |  |  |   |  __  | /  /__\  \  |    /   |      \           
                |  |  |   | |  | | |   __   |  |    \   |  |\   \          
                \     /   | |  | | |  |  |  |  | |\  \  |  | \   \       
                 \___/    |_|  |_| |__|  |__|  |_| \__\ |__|  \__/        
                                                                              
                      - O R C A' S   B I G   F R I E N D -                    
                                      &                                       
                       - I N T E G R A L  F E E D E R -                       
                                                                              
 v1 FN, 2020, v2 2021                                                         
------------------------------------------------------------------------------


Reading SHARK input file acrolien.565.SHARKINP.tmp ... ok
----------------------
SHARK INTEGRAL PACKAGE
----------------------

Number of atoms                             ...      8
Number of basis functions                   ...    100
Number of shells                            ...     60
Maximum angular momentum                    ...      2
Integral batch strategy                     ... SHARK/LIBINT Hybrid
RI-J (if used) integral strategy            ... SPLIT-RIJ (Revised 2003 algorithm where possible)
Printlevel                                  ...      1
Contraction scheme used                     ... PARTIAL GENERAL contraction
Coulomb Range Separation                    ... NOT USED
Exchange Range Separation                   ... NOT USED
Finite Nucleus Model                        ... NOT USED
Auxiliary Coulomb fitting basis             ... AVAILABLE
   # of basis functions in Aux-J            ...    240
   # of shells in Aux-J                     ...     80
   Maximum angular momentum in Aux-J        ...      4
Auxiliary J/K fitting basis                 ... NOT available
Auxiliary Correlation fitting basis         ... NOT available
Auxiliary 'external' fitting basis          ... NOT available
Integral threshold                          ...     2.500000e-11
Primitive cut-off                           ...     2.500000e-12
Primitive pair pre-selection threshold      ...     2.500000e-12

Calculating pre-screening integrals         ... done (  0.0 sec) Dimension = 60
Calculating pre-screening integrals (ORCA)  ... done (  0.3 sec) Dimension = 36
Organizing shell pair data                  ... done (  0.6 sec)
Shell pair information
Total number of shell pairs                 ...      1830
Shell pairs after pre-screening             ...      1540
Total number of primitive shell pairs       ...      2950
Primitive shell pairs kept                  ...      2309
          la=0 lb=0:    728 shell pairs
          la=1 lb=0:    505 shell pairs
          la=1 lb=1:     78 shell pairs
          la=2 lb=0:    171 shell pairs
          la=2 lb=1:     48 shell pairs
          la=2 lb=2:     10 shell pairs

Calculating one electron integrals          ... done (  0.0 sec)
Calculating RI/J V-Matrix + Cholesky decomp.... done (  2.3 sec)
Calculating Nuclear repulsion               ... done (  0.8 sec) ENN=    105.115404719272 Eh

SHARK setup successfully completed in   7.3 seconds

Maximum memory used throughout the entire GTOINT-calculation: 14.2 MB
-------------------------------------------------------------------------------
                                 ORCA SCF
-------------------------------------------------------------------------------

------------
SCF SETTINGS
------------
Hamiltonian:
 Density Functional     Method          .... DFT(GTOs)
 Exchange Functional    Exchange        .... B88
   X-Alpha parameter    XAlpha          ....  0.666667
   Becke's b parameter  XBeta           ....  0.004200
 Correlation Functional Correlation     .... LYP
 LDA part of GGA corr.  LDAOpt          .... VWN-5
 Gradients option       PostSCFGGA      .... off
 Hybrid DFT is turned on
   Fraction HF Exchange ScalHFX         ....  0.200000
   Scaling of DF-GGA-X  ScalDFX         ....  0.720000
   Scaling of DF-GGA-C  ScalDFC         ....  0.810000
   Scaling of DF-LDA-C  ScalLDAC        ....  1.000000
   Perturbative correction              ....  0.000000
   Density functional embedding theory  .... OFF
   NL short-range parameter             ....  4.800000
 RI-approximation to the Coulomb term is turned on
   Number of AuxJ basis functions       .... 240
   RIJ-COSX (HFX calculated with COS-X)).... on


General Settings:
 Integral files         IntName         .... acrolien.565
 Hartree-Fock type      HFTyp           .... RHF
 Total Charge           Charge          ....    0
 Multiplicity           Mult            ....    1
 Number of Electrons    NEL             ....   30
 Basis Dimension        Dim             ....   76
 Nuclear Repulsion      ENuc            ....    105.1154047193 Eh

Convergence Acceleration:
 DIIS                   CNVDIIS         .... on
   Start iteration      DIISMaxIt       ....    12
   Startup error        DIISStart       ....  0.200000
   # of expansion vecs  DIISMaxEq       ....     5
   Bias factor          DIISBfac        ....   1.050
   Max. coefficient     DIISMaxC        ....  10.000
 Trust-Rad. Augm. Hess. CNVTRAH         .... auto
   Auto Start mean grad. ratio tolernc. ....  1.125000
   Auto Start start iteration           ....    20
   Auto Start num. interpolation iter.  ....    10
   Max. Number of Micro iterations      ....    16
   Max. Number of Macro iterations      .... Maxiter - #DIIS iter
   Number of Davidson start vectors     ....     2
   Converg. threshold I  (grad. norm)   ....   1.000e-05
   Converg. threshold II (energy diff.) ....   1.000e-08
   Grad. Scal. Fac. for Micro threshold ....   0.100
   Minimum threshold for Micro iter.    ....   0.010
   NR start threshold (gradient norm)   ....   0.001
   Initial trust radius                 ....   0.400
   Minimum AH scaling param. (alpha)    ....   1.000
   Maximum AH scaling param. (alpha)    .... 1000.000
   Orbital update algorithm             .... Taylor
   White noise on init. David. guess    .... on
   Maximum white noise                  ....   0.010
   Quad. conv. algorithm                .... NR
 SOSCF                  CNVSOSCF        .... on
   Start iteration      SOSCFMaxIt      ....   150
   Startup grad/error   SOSCFStart      ....  0.003300
 Level Shifting         CNVShift        .... on
   Level shift para.    LevelShift      ....    0.2500
   Turn off err/grad.   ShiftErr        ....    0.0010
 Zerner damping         CNVZerner       .... off
 Static damping         CNVDamp         .... on
   Fraction old density DampFac         ....    0.7000
   Max. Damping (<1)    DampMax         ....    0.9800
   Min. Damping (>=0)   DampMin         ....    0.0000
   Turn off err/grad.   DampErr         ....    0.1000
 Fernandez-Rico         CNVRico         .... off

SCF Procedure:
 Maximum # iterations   MaxIter         ....   500
 SCF integral mode      SCFMode         .... Direct
   Integral package                     .... SHARK and LIBINT hybrid scheme
 Reset frequency        DirectResetFreq ....    20
 Integral Threshold     Thresh          ....  2.500e-11 Eh
 Primitive CutOff       TCut            ....  2.500e-12 Eh

Convergence Tolerance:
 Convergence Check Mode ConvCheckMode   .... Total+1el-Energy
 Convergence forced     ConvForced      .... 1
 Energy Change          TolE            ....  1.000e-08 Eh
 1-El. energy change                    ....  1.000e-05 Eh
 Orbital Gradient       TolG            ....  1.000e-05
 Orbital Rotation angle TolX            ....  1.000e-05
 DIIS Error             TolErr          ....  5.000e-07


Diagonalization of the overlap matrix:
Smallest eigenvalue                        ... 3.096e-03
Time for diagonalization                   ...    0.002 sec
Threshold for overlap eigenvalues          ... 1.000e-08
Number of eigenvalues below threshold      ... 0
Time for construction of square roots      ...    0.879 sec
Total time needed                          ...    0.880 sec

Time for model grid setup =    0.977 sec

------------------------------
INITIAL GUESS: MODEL POTENTIAL
------------------------------
Loading Hartree-Fock densities                     ... done
Calculating cut-offs                               ... done
Initializing the effective Hamiltonian             ... done
Setting up the integral package (SHARK)            ... done
Starting the Coulomb interaction                   ... done (   0.0 sec)
Reading the grid                                   ... done
Mapping shells                                     ... done
Starting the XC term evaluation                    ... done (   0.1 sec)
  promolecular density results
     # of electrons  =     29.999233156
     EX              =    -24.744665922
     EC              =     -0.997172388
     EX+EC           =    -25.741838310
Transforming the Hamiltonian                       ... done (   0.0 sec)
Diagonalizing the Hamiltonian                      ... done (   0.0 sec)
Back transforming the eigenvectors                 ... done (   0.0 sec)
Now organizing SCF variables                       ... done
                      ------------------
                      INITIAL GUESS DONE (   2.3 sec)
                      ------------------
-------------------
DFT GRID GENERATION
-------------------

General Integration Accuracy     IntAcc      ... 4.388
Radial Grid Type                 RadialGrid  ... OptM3 with GC (2021)
Angular Grid (max. ang.)         AngularGrid ... 4 (Lebedev-302)
Angular grid pruning method      GridPruning ... 4 (adaptive)
Weight generation scheme         WeightScheme... Becke
Basis function cutoff            BFCut       ... 1.0000e-11
Integration weight cutoff        WCut        ... 1.0000e-14
Angular grids for H and He will be reduced by one unit
Partially contracted basis set               ... off
Rotationally invariant grid construction     ... off

Total number of grid points                  ...    37350
Total number of batches                      ...      587
Average number of points per batch           ...       63
Average number of grid points per atom       ...     4669
Time for grid setup =    1.794 sec

--------------------
COSX GRID GENERATION
--------------------

GRIDX 1
-------
General Integration Accuracy     IntAcc      ... 3.816
Radial Grid Type                 RadialGrid  ... OptM3 with GC (2021)
Angular Grid (max. ang.)         AngularGrid ... 1 (Lebedev-50)
Angular grid pruning method      GridPruning ... 4 (adaptive)
Weight generation scheme         WeightScheme... Becke
Basis function cutoff            BFCut       ... 1.0000e-11
Integration weight cutoff        WCut        ... 1.0000e-14
Angular grids for H and He will be reduced by one unit
Partially contracted basis set               ... on
Rotationally invariant grid construction     ... off

Total number of grid points                  ...     4790
Total number of batches                      ...       79
Average number of points per batch           ...       60
Average number of grid points per atom       ...      599
UseSFitting                                  ... on

GRIDX 2
-------
General Integration Accuracy     IntAcc      ... 4.020
Radial Grid Type                 RadialGrid  ... OptM3 with GC (2021)
Angular Grid (max. ang.)         AngularGrid ... 2 (Lebedev-110)
Angular grid pruning method      GridPruning ... 4 (adaptive)
Weight generation scheme         WeightScheme... Becke
Basis function cutoff            BFCut       ... 1.0000e-11
Integration weight cutoff        WCut        ... 1.0000e-14
Angular grids for H and He will be reduced by one unit
Partially contracted basis set               ... on
Rotationally invariant grid construction     ... off

Total number of grid points                  ...    10543
Total number of batches                      ...      169
Average number of points per batch           ...       62
Average number of grid points per atom       ...     1318
UseSFitting                                  ... on

GRIDX 3
-------
General Integration Accuracy     IntAcc      ... 4.338
Radial Grid Type                 RadialGrid  ... OptM3 with GC (2021)
Angular Grid (max. ang.)         AngularGrid ... 3 (Lebedev-194)
Angular grid pruning method      GridPruning ... 4 (adaptive)
Weight generation scheme         WeightScheme... Becke
Basis function cutoff            BFCut       ... 1.0000e-11
Integration weight cutoff        WCut        ... 1.0000e-14
Angular grids for H and He will be reduced by one unit
Partially contracted basis set               ... on
Rotationally invariant grid construction     ... off

Total number of grid points                  ...    23270
Total number of batches                      ...      369
Average number of points per batch           ...       63
Average number of grid points per atom       ...     2909
UseSFitting                                  ... on

Time for X-Grid setup             =    8.863 sec

 re-compute Schwartz prescreening matrix in partically contracted basis (1) ...done (   1.645 sec)
--------------
SCF ITERATIONS
--------------
ITER       Energy         Delta-E        Max-DP      RMS-DP      [F,P]     Damp
               ***  Starting incremental Fock matrix formation  ***
  0   -191.6461606570   0.000000000000 0.12163237  0.00444847  0.2530938 0.7000
  1   -191.7050028031  -0.058842146078 0.07446209  0.00284470  0.0958639 0.7000
                               ***Turning on DIIS***
  2   -191.7252054071  -0.020202603961 0.06217754  0.00363339  0.0350120 0.0000
  3   -191.7616281222  -0.036422715130 0.06657909  0.00231178  0.0507999 0.0000
  4   -191.7675597809  -0.005931658745 0.01170532  0.00054990  0.0248859 0.0000
                      *** Initiating the SOSCF procedure ***
                           *** Shutting down DIIS ***
                      *** Re-Reading the Fockian *** 
                      *** Removing any level shift *** 
ITER      Energy       Delta-E        Grad      Rot      Max-DP    RMS-DP
  5   -191.76855680  -0.0009970220  0.000616  0.000616  0.002321  0.000145
               *** Restarting incremental Fock matrix formation ***
  6   -191.76861323  -0.0000564319  0.000706  0.002121  0.002650  0.000126
  7   -191.76860379   0.0000094472  0.001107  0.001500  0.001778  0.000064
  8   -191.76861859  -0.0000148056  0.000040  0.000133  0.000234  0.000011
  9   -191.76861856   0.0000000370  0.000068  0.000117  0.000154  0.000006
 10   -191.76861863  -0.0000000696  0.000023  0.000067  0.000068  0.000003
 11   -191.76861862   0.0000000025  0.000018  0.000029  0.000041  0.000002
                  ***Gradient check signals convergence***
              ***Rediagonalizing the Fockian in SOSCF/NRSCF***

               *****************************************************
               *                     SUCCESS                       *
               *           SCF CONVERGED AFTER  12 CYCLES          *
               *****************************************************

Old exchange energy                            =     -5.026903272 Eh
New exchange energy                            =     -5.026896916 Eh
Exchange energy change after final integration =      0.000006356 Eh
Total energy after final integration           =   -191.768612278 Eh
Final COS-X integration done in                =     1.501 sec

----------------
TOTAL SCF ENERGY
----------------

Total Energy       :         -191.76861228 Eh           -5218.28923 eV

Components:
Nuclear Repulsion  :          105.11540472 Eh            2860.33558 eV
Electronic Energy  :         -296.88401700 Eh           -8078.62481 eV
One Electron Energy:         -467.52937377 Eh          -12722.12104 eV
Two Electron Energy:          170.64535677 Eh            4643.49623 eV
Max COSX asymmetry :            0.00000148 Eh               0.00004 eV

Virial components:
Potential Energy   :         -382.46833877 Eh          -10407.49260 eV
Kinetic Energy     :          190.69972649 Eh            5189.20337 eV
Virial Ratio       :            2.00560507


DFT components:
N(Alpha)           :       15.000000813198 electrons
N(Beta)            :       15.000000813198 electrons
N(Total)           :       30.000001626396 electrons
E(X)               :      -19.988649262719 Eh       
E(C)               :       -1.184671737456 Eh       
E(XC)              :      -21.173321000175 Eh       
DFET-embed. en.    :        0.000000000000 Eh       

---------------
SCF CONVERGENCE
---------------

  Last Energy change         ...   -1.0648e-08  Tolerance :   1.0000e-08
  Last MAX-Density change    ...    1.7764e-15  Tolerance :   1.0000e-07
  Last RMS-Density change    ...    5.4745e-17  Tolerance :   5.0000e-09
  Last Orbital Gradient      ...    9.0282e-07  Tolerance :   1.0000e-05
  Last Orbital Rotation      ...    2.6695e-06  Tolerance :   1.0000e-05

             **** THE GBW FILE WAS UPDATED (acrolien.565.gbw) ****
             **** DENSITY acrolien.565.scfp WAS UPDATED ****
             **** ENERGY FILE WAS UPDATED (acrolien.565.en.tmp) ****
             **** THE GBW FILE WAS UPDATED (acrolien.565.gbw) ****
             **** DENSITY acrolien.565.scfp WAS UPDATED ****
----------------
ORBITAL ENERGIES
----------------

  NO   OCC          E(Eh)            E(eV) 
   0   2.0000     -19.128582      -520.5152 
   1   2.0000     -10.256656      -279.0978 
   2   2.0000     -10.226896      -278.2880 
   3   2.0000     -10.204366      -277.6749 
   4   2.0000      -1.023996       -27.8643 
   5   2.0000      -0.799409       -21.7530 
   6   2.0000      -0.668271       -18.1846 
   7   2.0000      -0.539866       -14.6905 
   8   2.0000      -0.523843       -14.2545 
   9   2.0000      -0.434651       -11.8275 
  10   2.0000      -0.404893       -11.0177 
  11   2.0000      -0.398833       -10.8528 
  12   2.0000      -0.384625       -10.4662 
  13   2.0000      -0.280464        -7.6318 
  14   2.0000      -0.246729        -6.7138 
  15   0.0000      -0.082284        -2.2391 
  16   0.0000       0.052060         1.4166 
  17   0.0000       0.071852         1.9552 
  18   0.0000       0.078842         2.1454 
  19   0.0000       0.128837         3.5058 
  20   0.0000       0.153008         4.1636 
  21   0.0000       0.237347         6.4585 
  22   0.0000       0.259831         7.0704 
  23   0.0000       0.316757         8.6194 
  24   0.0000       0.447785        12.1848 
  25   0.0000       0.455161        12.3856 
  26   0.0000       0.468438        12.7469 
  27   0.0000       0.502554        13.6752 
  28   0.0000       0.517385        14.0788 
  29   0.0000       0.530354        14.4317 
  30   0.0000       0.558906        15.2086 
  31   0.0000       0.632544        17.2124 
  32   0.0000       0.646989        17.6055 
  33   0.0000       0.661333        17.9958 
  34   0.0000       0.687833        18.7169 
  35   0.0000       0.751399        20.4466 
  36   0.0000       0.775294        21.0968 
  37   0.0000       0.869373        23.6569 
  38   0.0000       0.900330        24.4992 
  39   0.0000       0.928920        25.2772 
  40   0.0000       0.995391        27.0860 
  41   0.0000       1.018431        27.7129 
  42   0.0000       1.032678        28.1006 
  43   0.0000       1.079413        29.3723 
  44   0.0000       1.085362        29.5342 
  45   0.0000       1.141946        31.0739 
  46   0.0000       1.189145        32.3583 
  47   0.0000       1.272711        34.6322 
  48   0.0000       1.411049        38.3966 
  49   0.0000       1.460422        39.7401 
  50   0.0000       1.508530        41.0492 
  51   0.0000       1.535302        41.7777 
  52   0.0000       1.567864        42.6638 
  53   0.0000       1.612154        43.8689 
  54   0.0000       1.640509        44.6405 
  55   0.0000       1.691807        46.0364 
  56   0.0000       1.759000        47.8648 
  57   0.0000       1.806147        49.1478 
  58   0.0000       1.859158        50.5903 
  59   0.0000       1.877568        51.0912 
  60   0.0000       1.942518        52.8586 
  61   0.0000       1.956625        53.2425 
  62   0.0000       2.003736        54.5244 
  63   0.0000       2.050374        55.7935 
  64   0.0000       2.071902        56.3793 
  65   0.0000       2.143364        58.3239 
  66   0.0000       2.442122        66.4535 
  67   0.0000       2.469581        67.2007 
  68   0.0000       2.594418        70.5977 
  69   0.0000       2.712401        73.8082 
  70   0.0000       2.734252        74.4028 
  71   0.0000       2.820499        76.7497 
  72   0.0000       2.983037        81.1726 
  73   0.0000       3.129839        85.1672 
  74   0.0000       3.380218        91.9804 
  75   0.0000       3.437722        93.5452 

                    ********************************
                    * MULLIKEN POPULATION ANALYSIS *
                    ********************************

-----------------------
MULLIKEN ATOMIC CHARGES
-----------------------
   0 C :    0.221142
   1 O :   -0.233369
   2 C :   -0.109267
   3 C :    0.077465
   4 H :   -0.042875
   5 H :   -0.011231
   6 H :    0.090480
   7 H :    0.007654
Sum of atomic charges:    0.0000000

--------------------------------
MULLIKEN REDUCED ORBITAL CHARGES
--------------------------------
  0 C s       :     3.028929  s :     3.028929
      pz      :     0.787090  p :     2.604405
      px      :     0.947539
      py      :     0.869776
      dz2     :     0.005469  d :     0.145524
      dxz     :     0.006793
      dyz     :     0.028051
      dx2y2   :     0.037126
      dxy     :     0.068084
  1 O s       :     3.765262  s :     3.765262
      pz      :     1.279233  p :     4.451064
      px      :     1.809764
      py      :     1.362068
      dz2     :     0.002000  d :     0.017043
      dxz     :     0.000054
      dyz     :     0.005126
      dx2y2   :     0.006067
      dxy     :     0.003796
  2 C s       :     3.150169  s :     3.150169
      pz      :     1.002921  p :     2.900862
      px      :     0.991466
      py      :     0.906476
      dz2     :     0.003222  d :     0.058236
      dxz     :     0.006944
      dyz     :     0.004059
      dx2y2   :     0.023917
      dxy     :     0.020093
  3 C s       :     3.120035  s :     3.120035
      pz      :     0.839292  p :     2.762603
      px      :     1.006990
      py      :     0.916321
      dz2     :     0.001020  d :     0.039897
      dxz     :     0.006769
      dyz     :     0.002224
      dx2y2   :     0.012752
      dxy     :     0.017131
  4 H s       :     1.015066  s :     1.015066
      pz      :     0.004584  p :     0.027809
      px      :     0.017341
      py      :     0.005883
  5 H s       :     0.980777  s :     0.980777
      pz      :     0.006538  p :     0.030454
      px      :     0.004670
      py      :     0.019246
  6 H s       :     0.882911  s :     0.882911
      pz      :     0.003621  p :     0.026609
      px      :     0.004317
      py      :     0.018671
  7 H s       :     0.958645  s :     0.958645
      pz      :     0.006871  p :     0.033701
      px      :     0.014025
      py      :     0.012804


                     *******************************
                     * LOEWDIN POPULATION ANALYSIS *
                     *******************************

----------------------
LOEWDIN ATOMIC CHARGES
----------------------
   0 C :   -0.033692
   1 O :   -0.039667
   2 C :   -0.069605
   3 C :    0.052891
   4 H :   -0.014212
   5 H :    0.023527
   6 H :    0.071180
   7 H :    0.009578

-------------------------------
LOEWDIN REDUCED ORBITAL CHARGES
-------------------------------
  0 C s       :     2.832292  s :     2.832292
      pz      :     0.769070  p :     2.814028
      px      :     1.049801
      py      :     0.995158
      dz2     :     0.021394  d :     0.387372
      dxz     :     0.016305
      dyz     :     0.061735
      dx2y2   :     0.100481
      dxy     :     0.187457
  1 O s       :     3.514248  s :     3.514248
      pz      :     1.263969  p :     4.496283
      px      :     1.771924
      py      :     1.460391
      dz2     :     0.003954  d :     0.029135
      dxz     :     0.000069
      dyz     :     0.006121
      dx2y2   :     0.012226
      dxy     :     0.006766
  2 C s       :     2.836962  s :     2.836962
      pz      :     0.954159  p :     3.048226
      px      :     1.059057
      py      :     1.035010
      dz2     :     0.014316  d :     0.184417
      dxz     :     0.019312
      dyz     :     0.008964
      dx2y2   :     0.073836
      dxy     :     0.067989
  3 C s       :     2.882973  s :     2.882973
      pz      :     0.818888  p :     2.940374
      px      :     1.085169
      py      :     1.036317
      dz2     :     0.008662  d :     0.123762
      dxz     :     0.014648
      dyz     :     0.003986
      dx2y2   :     0.044001
      dxy     :     0.052465
  4 H s       :     0.924266  s :     0.924266
      pz      :     0.016300  p :     0.089946
      px      :     0.050652
      py      :     0.022995
  5 H s       :     0.885419  s :     0.885419
      pz      :     0.020569  p :     0.091054
      px      :     0.018376
      py      :     0.052109
  6 H s       :     0.862180  s :     0.862180
      pz      :     0.009609  p :     0.066640
      px      :     0.011256
      py      :     0.045776
  7 H s       :     0.884841  s :     0.884841
      pz      :     0.021505  p :     0.105581
      px      :     0.041424
      py      :     0.042652


                      *****************************
                      * MAYER POPULATION ANALYSIS *
                      *****************************

  NA   - Mulliken gross atomic population
  ZA   - Total nuclear charge
  QA   - Mulliken gross atomic charge
  VA   - Mayer's total valence
  BVA  - Mayer's bonded valence
  FA   - Mayer's free valence

  ATOM       NA         ZA         QA         VA         BVA        FA
  0 C      5.7789     6.0000     0.2211     4.2222     4.2222    -0.0000
  1 O      8.2334     8.0000    -0.2334     2.3039     2.3039     0.0000
  2 C      6.1093     6.0000    -0.1093     4.0064     4.0064    -0.0000
  3 C      5.9225     6.0000     0.0775     3.9052     3.9052     0.0000
  4 H      1.0429     1.0000    -0.0429     0.9610     0.9610     0.0000
  5 H      1.0112     1.0000    -0.0112     0.9840     0.9840    -0.0000
  6 H      0.9095     1.0000     0.0905     1.0011     1.0011    -0.0000
  7 H      0.9923     1.0000     0.0077     0.9754     0.9754     0.0000

  Mayer bond orders larger than 0.100000
B(  0-C ,  1-O ) :   2.1117 B(  0-C ,  2-C ) :   1.1275 B(  0-C ,  4-H ) :   0.9397 
B(  1-O ,  3-C ) :   0.1135 B(  2-C ,  3-C ) :   1.8901 B(  2-C ,  5-H ) :   0.9521 
B(  3-C ,  6-H ) :   0.9188 B(  3-C ,  7-H ) :   0.9391 

-------
TIMINGS
-------

Total SCF time: 0 days 0 hours 2 min 50 sec 

Total time                  ....     170.430 sec
Sum of individual times     ....     135.839 sec  ( 79.7%)

Fock matrix formation       ....     118.884 sec  ( 69.8%)
  Split-RI-J                ....       0.931 sec  (  0.8% of F)
  Chain of spheres X        ....       8.385 sec  (  7.1% of F)
  XC integration            ....      48.266 sec  ( 40.6% of F)
    Basis function eval.    ....       1.902 sec  (  3.9% of XC)
    Density eval.           ....       0.786 sec  (  1.6% of XC)
    XC-Functional eval.     ....       0.584 sec  (  1.2% of XC)
    XC-Potential eval.      ....       0.634 sec  (  1.3% of XC)
Diagonalization             ....       0.007 sec  (  0.0%)
Density matrix formation    ....       0.001 sec  (  0.0%)
Population analysis         ....       1.981 sec  (  1.2%)
Initial guess               ....       1.277 sec  (  0.7%)
Orbital Transformation      ....       0.000 sec  (  0.0%)
Orbital Orthonormalization  ....       0.000 sec  (  0.0%)
DIIS solution               ....       0.134 sec  (  0.1%)
SOSCF solution              ....       1.920 sec  (  1.1%)
Grid generation             ....      11.635 sec  (  6.8%)

Maximum memory used throughout the entire SCF-calculation: 51.7 MB
------------------------------------------------------------------------------
                        ORCA TD-DFT/TDA CALCULATION
------------------------------------------------------------------------------

Input orbitals are from        ... acrolien.565.gbw
CI-vector output               ... acrolien.565.cis
Tamm-Dancoff approximation     ... operative
CIS-Integral strategy          ... AO-integrals
Integral handling              ... AO integral Direct
Max. core memory used          ... 512 MB
Reference state                ... RHF
Generation of triplets         ... off
Follow IRoot                   ... off
Number of operators            ... 1
Orbital ranges used for CIS calculation:
 Operator 0:  Orbitals   4... 14  to  15... 75
XAS localization array:
 Operator 0:  Orbitals  -1... -1

-------------------
XC-INTEGRATION GRID
-------------------

General Integration Accuracy     IntAcc      ... 3.467
Radial Grid Type                 RadialGrid  ... OptM3 with GC (2021)
Angular Grid (max. ang.)         AngularGrid ... 1 (Lebedev-50)
Angular grid pruning method      GridPruning ... 4 (adaptive)
Weight generation scheme         WeightScheme... Becke
Basis function cutoff            BFCut       ... 1.0000e-11
Integration weight cutoff        WCut        ... 1.0000e-14
Angular grids for H and He will be reduced by one unit
Partially contracted basis set               ... off
Rotationally invariant grid construction     ... off

Total number of grid points                  ...     5478
Total number of batches                      ...       91
Average number of points per batch           ...       60
Average number of grid points per atom       ...      685

---------------------
COSX-INTEGRATION GRID
---------------------

General Integration Accuracy     IntAcc      ... 3.067
Radial Grid Type                 RadialGrid  ... OptM3 with GC (2021)
Angular Grid (max. ang.)         AngularGrid ... 1 (Lebedev-50)
Angular grid pruning method      GridPruning ... 4 (adaptive)
Weight generation scheme         WeightScheme... Becke
Basis function cutoff            BFCut       ... 1.0000e-11
Integration weight cutoff        WCut        ... 1.0000e-14
Angular grids for H and He will be reduced by one unit
Partially contracted basis set               ... on
Rotationally invariant grid construction     ... off

Total number of grid points                  ...     2504
Total number of batches                      ...       45
Average number of points per batch           ...       55
Average number of grid points per atom       ...      313

---------------
TD-DFT XC SETUP
---------------

DFT calculation                         ... on
Name of the grid file                   ... acrolien.565.grid_cis.tmp
Exchange functional (TD-DFT)            ... B88
   X-Alpha parameter    XAlpha (TD-DFT) ...  0.666667
   Becke's b parameter  XBeta (TD-DFT)  ...  0.004200
Correlation functional (TD-DFT)         ... LYP
 LDA part of GGA corr.  LDAOpt (TD-DFT) ... VWN-5
Hybrid DFT                              ... on
   Exchange mixing (TD-DFT)             ...  0.200
   GGA exch. scaling (TD-DFT)           ...  0.720
   GGA corr. scaling (TD-DFT)           ...  0.810

Building densities             ... done
Calculating rho(r) on the grid ... done
Building xc-kernel on the grid ... done
                    *** TD-DFT CALCULATION INITIALIZED ***

------------------------
DAVIDSON-DIAGONALIZATION
------------------------

Dimension of the eigenvalue problem            ...    671
Number of roots to be determined               ...      1
Maximum size of the expansion space            ...     10
Maximum number of iterations                   ...    100
Convergence tolerance for the residual         ...    2.500e-07
Convergence tolerance for the energies         ...    2.500e-07
Orthogonality tolerance                        ...    1.000e-14
Level Shift                                    ...    0.000e+00
Constructing the preconditioner                ... o.k.
Building the initial guess                     ... o.k.
Number of trial vectors determined             ...     10


                       ****Iteration    0****

   Memory handling for direct AO based CIS:
   Memory per vector needed      ...     1 MB
   Memory needed                 ...     0 MB
   Memory available              ...   512 MB
   Number of vectors per batch   ...   512
   Number of batches             ...     1
   Time for densities:            0.000
   Time for RI-J (Direct):        0.072
   Time for K (COSX):             1.647
   Time for XC-Integration:       0.083
   Time for Sigma-Completion:     0.000
   Size of expansion space: 3
   Lowest Energy          :     0.108708899714
   Maximum Energy change  :     0.108708899714 (vector 0)
   Maximum residual norm  :     0.001131434481

                       ****Iteration    1****
   Time for densities:            0.000
   Time for RI-J (Direct):        0.055
   Time for K (COSX):             1.212
   Time for XC-Integration:       0.043
   Time for Sigma-Completion:     0.000
   Size of expansion space: 4
   Lowest Energy          :     0.107718321249
   Maximum Energy change  :     0.000990578466 (vector 0)
   Maximum residual norm  :     0.000177232987

                       ****Iteration    2****
   Time for densities:            0.000
   Time for RI-J (Direct):        0.055
   Time for K (COSX):             0.205
   Time for XC-Integration:       0.043
   Time for Sigma-Completion:     0.000
   Size of expansion space: 5
   Lowest Energy          :     0.107557535563
   Maximum Energy change  :     0.000160785685 (vector 0)
   Maximum residual norm  :     0.000007783682

                       ****Iteration    3****
   Time for densities:            0.000
   Time for RI-J (Direct):        0.056
   Time for K (COSX):             1.642
   Time for XC-Integration:       0.043
   Time for Sigma-Completion:     0.000
   Size of expansion space: 6
   Lowest Energy          :     0.107549705923
   Maximum Energy change  :     0.000007829640 (vector 0)
   Maximum residual norm  :     0.000000469461

                       ****Iteration    4****
   Time for densities:            0.000
   Time for RI-J (Direct):        0.055
   Time for K (COSX):             1.862
   Time for XC-Integration:       0.043
   Time for Sigma-Completion:     0.000
   Size of expansion space: 7
   Lowest Energy          :     0.107549287714
   Maximum Energy change  :     0.000000418209 (vector 0)
   Maximum residual norm  :     0.000000018502

      *** CONVERGENCE OF RESIDUAL NORM REACHED ***

Storing the converged CI vectors               ... acrolien.565.cis1

                 *** DAVIDSON DONE ***

Total time for solving the CIS problem:     9.807sec

------------------------------------
TD-DFT/TDA EXCITED STATES (SINGLETS)
------------------------------------

the weight of the individual excitations are printed if larger than 1.0e-02

STATE  1:  E=   0.107549 au      2.927 eV    23604.3 cm**-1 <S**2> =   0.000000
    14a ->  15a  :     0.982941 (c= -0.99143401)
    14a ->  16a  :     0.012017 (c=  0.10962197)


-----------------------------
TD-DFT/TDA-EXCITATION SPECTRA
-----------------------------

Center of mass = (  0.5773, -0.9093,  0.0002)
Calculating the Dipole integrals                  ... done
Transforming integrals                            ... done
Calculating the Linear Momentum integrals         ... done
Transforming integrals                            ... done
Calculating angular momentum integrals            ... done
Transforming integrals                            ... done

-----------------------------------------------------------------------------
         ABSORPTION SPECTRUM VIA TRANSITION ELECTRIC DIPOLE MOMENTS
-----------------------------------------------------------------------------
State   Energy    Wavelength  fosc         T2        TX        TY        TZ  
        (cm-1)      (nm)                 (au**2)    (au)      (au)      (au) 
-----------------------------------------------------------------------------
   1   23604.3    423.7   0.000153989   0.00215  -0.00046  -0.00758   0.04572

-----------------------------------------------------------------------------
         ABSORPTION SPECTRUM VIA TRANSITION VELOCITY DIPOLE MOMENTS
-----------------------------------------------------------------------------
State   Energy    Wavelength   fosc        P2         PX        PY        PZ  
        (cm-1)      (nm)                 (au**2)     (au)      (au)      (au) 
-----------------------------------------------------------------------------
   1   23604.3    423.7   0.000902810   0.00015   0.00167  -0.00285  -0.01161

-------------------------------------------------------------------
                             CD SPECTRUM
-------------------------------------------------------------------
State  Energy     Wavelength     R         MX        MY        MZ   
       (cm-1)       (nm)     (1e40*cgs)   (au)      (au)      (au)  
-------------------------------------------------------------------
   1   23604.3    423.7     -2.16315   0.04293   0.30687  -0.04906

-------------------------------------------------------------------
         CD SPECTRUM VIA TRANSITION VELOCITY DIPOLE MOMENTS        
-------------------------------------------------------------------
State  Energy     Wavelength     R         MX        MY        MZ   
       (cm-1)       (nm)     (1e40*cgs)   (au)      (au)      (au)  
-------------------------------------------------------------------
   1   23604.3    423.7     -1.01855   0.04293   0.30687  -0.04906

Total run time:       15.732 sec

           *** ORCA-CIS/TD-DFT FINISHED WITHOUT ERROR ***

Maximum memory used throughout the entire CIS-calculation: 48.6 MB

-----------------------
CIS/TD-DFT TOTAL ENERGY
-----------------------

    E(SCF)  =   -191.768612278 Eh
    DE(CIS) =      0.107549288 Eh (Root  1)
    ----------------------------- ---------
    E(tot)  =   -191.661062990 Eh


-------------------------   --------------------
FINAL SINGLE POINT ENERGY      -191.661062989998
-------------------------   --------------------


                            ***************************************
                            *     ORCA property calculations      *
                            ***************************************

                                    ---------------------
                                    Active property flags
                                    ---------------------
   (+) Dipole Moment


------------------------------------------------------------------------------
                       ORCA ELECTRIC PROPERTIES CALCULATION
------------------------------------------------------------------------------

Dipole Moment Calculation                       ... on
Quadrupole Moment Calculation                   ... off
Polarizability Calculation                      ... off
GBWName                                         ... acrolien.565.gbw
Electron density                                ... acrolien.565.scfp
The origin for moment calculation is the CENTER OF MASS  = ( 0.577304, -0.909339  0.000151)

-------------
DIPOLE MOMENT
-------------
                                X             Y             Z
Electronic contribution:     -1.53815      -1.48913      -0.05918
Nuclear contribution   :      2.03839       2.47964      -0.01721
                        -----------------------------------------
Total Dipole Moment    :      0.50024       0.99051      -0.07639
                        -----------------------------------------
Magnitude (a.u.)       :      1.11229
Magnitude (Debye)      :      2.82722



--------------------
Rotational spectrum 
--------------------
 
Rotational constants in cm-1:     0.730856     0.217970     0.168384 
Rotational constants in MHz : 21910.526534  6534.562531  5048.020421 

 Dipole components along the rotational axes: 
x,y,z [a.u.] :     0.965675     0.546416    -0.078087 
x,y,z [Debye]:     2.454550     1.388878    -0.198481 

 

Timings for individual modules:

Sum of individual times         ...      195.368 sec (=   3.256 min)
GTO integral calculation        ...        8.035 sec (=   0.134 min)   4.1 %
SCF iterations                  ...      170.441 sec (=   2.841 min)  87.2 %
CIS module                      ...       16.893 sec (=   0.282 min)   8.6 %
                             ****ORCA TERMINATED NORMALLY****
TOTAL RUN TIME: 0 days 0 hours 3 minutes 21 seconds 87 msec
