
                                 *****************
                                 * O   R   C   A *
                                 *****************

                                            #,                                       
                                            ###                                      
                                            ####                                     
                                            #####                                    
                                            ######                                   
                                           ########,                                 
                                     ,,################,,,,,                         
                               ,,#################################,,                 
                          ,,##########################################,,             
                       ,#########################################, ''#####,          
                    ,#############################################,,   '####,        
                  ,##################################################,,,,####,       
                ,###########''''           ''''###############################       
              ,#####''   ,,,,##########,,,,          '''####'''          '####       
            ,##' ,,,,###########################,,,                        '##       
           ' ,,###''''                  '''############,,,                           
         ,,##''                                '''############,,,,        ,,,,,,###''
      ,#''                                            '''#######################'''  
     '                                                          ''''####''''         
             ,#######,   #######,   ,#######,      ##                                
            ,#'     '#,  ##    ##  ,#'     '#,    #''#        ######   ,####,        
            ##       ##  ##   ,#'  ##            #'  '#       #        #'  '#        
            ##       ##  #######   ##           ,######,      #####,   #    #        
            '#,     ,#'  ##    ##  '#,     ,#' ,#      #,         ##   #,  ,#        
             '#######'   ##     ##  '#######'  #'      '#     #####' # '####'        



                  #######################################################
                  #                        -***-                        #
                  #          Department of theory and spectroscopy      #
                  #    Directorship and core code : Frank Neese         #
                  #        Max Planck Institute fuer Kohlenforschung    #
                  #                Kaiser Wilhelm Platz 1               #
                  #                 D-45470 Muelheim/Ruhr               #
                  #                      Germany                        #
                  #                                                     #
                  #                  All rights reserved                #
                  #                        -***-                        #
                  #######################################################


                         Program Version 5.0.3 -  RELEASE  -


 With contributions from (in alphabetic order):
   Daniel Aravena         : Magnetic Suceptibility
   Michael Atanasov       : Ab Initio Ligand Field Theory (pilot matlab implementation)
   Alexander A. Auer      : GIAO ZORA, VPT2 properties, NMR spectrum
   Ute Becker             : Parallelization
   Giovanni Bistoni       : ED, misc. LED, open-shell LED, HFLD
   Martin Brehm           : Molecular dynamics
   Dmytro Bykov           : SCF Hessian
   Vijay G. Chilkuri      : MRCI spin determinant printing, contributions to CSF-ICE
   Dipayan Datta          : RHF DLPNO-CCSD density
   Achintya Kumar Dutta   : EOM-CC, STEOM-CC
   Dmitry Ganyushin       : Spin-Orbit,Spin-Spin,Magnetic field MRCI
   Miquel Garcia          : C-PCM and meta-GGA Hessian, CC/C-PCM, Gaussian charge scheme
   Yang Guo               : DLPNO-NEVPT2, F12-NEVPT2, CIM, IAO-localization
   Andreas Hansen         : Spin unrestricted coupled pair/coupled cluster methods
   Benjamin Helmich-Paris : MC-RPA, TRAH-SCF, COSX integrals
   Lee Huntington         : MR-EOM, pCC
   Robert Izsak           : Overlap fitted RIJCOSX, COSX-SCS-MP3, EOM
   Marcus Kettner         : VPT2
   Christian Kollmar      : KDIIS, OOCD, Brueckner-CCSD(T), CCSD density, CASPT2, CASPT2-K
   Simone Kossmann        : Meta GGA functionals, TD-DFT gradient, OOMP2, MP2 Hessian
   Martin Krupicka        : Initial AUTO-CI
   Lucas Lang             : DCDCAS
   Marvin Lechner         : AUTO-CI (C++ implementation), FIC-MRCC
   Dagmar Lenk            : GEPOL surface, SMD
   Dimitrios Liakos       : Extrapolation schemes; Compound Job, initial MDCI parallelization
   Dimitrios Manganas     : Further ROCIS development; embedding schemes
   Dimitrios Pantazis     : SARC Basis sets
   Anastasios Papadopoulos: AUTO-CI, single reference methods and gradients
   Taras Petrenko         : DFT Hessian,TD-DFT gradient, ASA, ECA, R-Raman, ABS, FL, XAS/XES, NRVS
   Peter Pinski           : DLPNO-MP2, DLPNO-MP2 Gradient
   Christoph Reimann      : Effective Core Potentials
   Marius Retegan         : Local ZFS, SOC
   Christoph Riplinger    : Optimizer, TS searches, QM/MM, DLPNO-CCSD(T), (RO)-DLPNO pert. Triples
   Tobias Risthaus        : Range-separated hybrids, TD-DFT gradient, RPA, STAB
   Michael Roemelt        : Original ROCIS implementation
   Masaaki Saitow         : Open-shell DLPNO-CCSD energy and density
   Barbara Sandhoefer     : DKH picture change effects
   Avijit Sen             : IP-ROCIS
   Kantharuban Sivalingam : CASSCF convergence, NEVPT2, FIC-MRCI
   Bernardo de Souza      : ESD, SOC TD-DFT
   Georgi Stoychev        : AutoAux, RI-MP2 NMR, DLPNO-MP2 response
   Willem Van den Heuvel  : Paramagnetic NMR
   Boris Wezisla          : Elementary symmetry handling
   Frank Wennmohs         : Technical directorship


 We gratefully acknowledge several colleagues who have allowed us to
 interface, adapt or use parts of their codes:
   Stefan Grimme, W. Hujo, H. Kruse, P. Pracht,  : VdW corrections, initial TS optimization,
                  C. Bannwarth, S. Ehlert          DFT functionals, gCP, sTDA/sTD-DF
   Ed Valeev, F. Pavosevic, A. Kumar             : LibInt (2-el integral package), F12 methods
   Garnet Chan, S. Sharma, J. Yang, R. Olivares  : DMRG
   Ulf Ekstrom                                   : XCFun DFT Library
   Mihaly Kallay                                 : mrcc  (arbitrary order and MRCC methods)
   Jiri Pittner, Ondrej Demel                    : Mk-CCSD
   Frank Weinhold                                : gennbo (NPA and NBO analysis)
   Christopher J. Cramer and Donald G. Truhlar   : smd solvation model
   Lars Goerigk                                  : TD-DFT with DH, B97 family of functionals
   V. Asgeirsson, H. Jonsson                     : NEB implementation
   FAccTs GmbH                                   : IRC, NEB, NEB-TS, DLPNO-Multilevel, CI-OPT
                                                   MM, QMMM, 2- and 3-layer-ONIOM, Crystal-QMMM,
                                                   LR-CPCM, SF, NACMEs, symmetry and pop. for TD-DFT,
                                                   nearIR, NL-DFT gradient (VV10), updates on ESD,
                                                   ML-optimized integration grids
   S Lehtola, MJT Oliveira, MAL Marques          : LibXC Library
   Liviu Ungur et al                             : ANISO software


 Your calculation uses the libint2 library for the computation of 2-el integrals
 For citations please refer to: http://libint.valeyev.net

 Your ORCA version has been built with support for libXC version: 5.1.0
 For citations please refer to: https://tddft.org/programs/libxc/

 This ORCA versions uses:
   CBLAS   interface :  Fast vector & matrix operations
   LAPACKE interface :  Fast linear algebra routines
   SCALAPACK package :  Parallel linear algebra routines
   Shared memory     :  Shared parallel matrices
   BLAS/LAPACK       :  OpenBLAS 0.3.15  USE64BITINT DYNAMIC_ARCH NO_AFFINITY Haswell SINGLE_THREADED
        Core in use  :  Haswell
   Copyright (c) 2011-2014, The OpenBLAS Project


================================================================================

----- Orbital basis set information -----
Your calculation utilizes the basis: cc-pVDZ 
       H, B-Ne : Obtained from the ccRepo (grant-hill.group.shef.ac.uk/ccrepo) Feb. 2017
                 T. H. Dunning, Jr., J. Chem. Phys. 90, 1007 (1989)
            He : Obtained from the ccRepo (grant-hill.group.shef.ac.uk/ccrepo) Feb. 2017
                 D. E. Woon, T. H. Dunning, Jr., J. Chem. Phys. 100, 2975 (1994)
  Li-Be, Na-Mg : Obtained from the ccRepo (grant-hill.group.shef.ac.uk/ccrepo) Feb. 2017
                 B. P. Prascher, D. E. Woon, K. A. Peterson, T. H. Dunning, Jr., A. K. Wilson, Theor. Chem. Acc. 128, 69 (2011)
         Al-Ar : Obtained from the ccRepo (grant-hill.group.shef.ac.uk/ccrepo) Feb. 2017
                 D. E. Woon, T. H. Dunning, Jr., J. Chem. Phys. 98, 1358 (1993)
            Ca : Obtained from the Peterson Research Group Website (tyr0.chem.wsu.edu/~kipeters) Feb. 2017
                 J. Koput, K. A. Peterson, J. Phys. Chem. 106, 9595 (2002)
         Sc-Zn : Obtained from the ccRepo (grant-hill.group.shef.ac.uk/ccrepo) Feb. 2017
                 N. B. Balabanov, K. A. Peterson, J. Chem. Phys. 123, 064107 (2005)
                 N. B. Balabanov, K. A. Peterson, J. Chem. Phys. 125, 074110 (2006)
         Ga-Kr : Obtained from the ccRepo (grant-hill.group.shef.ac.uk/ccrepo) Feb. 2017
                 A. K. Wilson, D. E. Woon, K. A. Peterson, T. H. Dunning, Jr., J. Chem. Phys. 110, 7667 (1999)

----- AuxJ basis set information -----
Your calculation utilizes the auxiliary basis: def2/J
   F. Weigend, Phys. Chem. Chem. Phys. 8, 1057 (2006).

================================================================================
                                        WARNINGS
                       Please study these warnings very carefully!
================================================================================

INFO   : Checking CIS options ...

INFO   : the flag for use of the SHARK integral package has been found!

================================================================================
                                       INPUT FILE
================================================================================
NAME = acrolien.255.com
|  1> ! B3LYP cc-pVDZ
|  2> !TightSCF
|  3> %scf
|  4>  ConvForced true
|  5>  convergence tight
|  6>  MaxIter 500
|  7> end
|  8>  
|  9> %tddft 
| 10>  nroots 1
| 11> end
| 12> 
| 13> # 	1098
| 14> * xyz 0 1
| 15> 		C   -1.232219  -0.386980  -0.043748
| 16> 		O   -2.144078  -0.404612  -0.790100
| 17> 		C   -0.000313   0.428053  -0.372580
| 18> 		C    1.144542   0.041413   0.236230
| 19> 		H   -1.161673  -0.908078   0.890598
| 20> 		H   -0.088484   1.299902  -0.919106
| 21> 		H    1.280894  -0.830423   0.914882
| 22> 		H    2.153932   0.730646   0.097847
| 23> *
| 24> 
| 25>                          ****END OF INPUT****
================================================================================

                       ****************************
                       * Single Point Calculation *
                       ****************************

---------------------------------
CARTESIAN COORDINATES (ANGSTROEM)
---------------------------------
  C     -1.232219   -0.386980   -0.043748
  O     -2.144078   -0.404612   -0.790100
  C     -0.000313    0.428053   -0.372580
  C      1.144542    0.041413    0.236230
  H     -1.161673   -0.908078    0.890598
  H     -0.088484    1.299902   -0.919106
  H      1.280894   -0.830423    0.914882
  H      2.153932    0.730646    0.097847

----------------------------
CARTESIAN COORDINATES (A.U.)
----------------------------
  NO LB      ZA    FRAG     MASS         X           Y           Z
   0 C     6.0000    0    12.011   -2.328556   -0.731286   -0.082672
   1 O     8.0000    0    15.999   -4.051720   -0.764606   -1.493073
   2 C     6.0000    0    12.011   -0.000591    0.808903   -0.704074
   3 C     6.0000    0    12.011    2.162871    0.078259    0.446410
   4 H     1.0000    0     1.008   -2.195244   -1.716019    1.682986
   5 H     1.0000    0     1.008   -0.167211    2.456459   -1.736859
   6 H     1.0000    0     1.008    2.420539   -1.569272    1.728876
   7 H     1.0000    0     1.008    4.070342    1.380721    0.184904

--------------------------------
INTERNAL COORDINATES (ANGSTROEM)
--------------------------------
 C      0   0   0     0.000000000000     0.00000000     0.00000000
 O      1   0   0     1.178490148966     0.00000000     0.00000000
 C      1   2   0     1.513275146214   120.02155201     0.00000000
 C      3   1   2     1.353082804829   115.92002480   203.03307492
 H      1   2   3     1.072157782901   126.55169656   180.19740767
 H      3   1   2     1.032756250389   120.01102307    31.56609218
 H      4   3   1     1.113219841677   126.99328265     2.65749865
 H      4   3   1     1.230065101967   118.91988622   186.04566436

---------------------------
INTERNAL COORDINATES (A.U.)
---------------------------
 C      0   0   0     0.000000000000     0.00000000     0.00000000
 O      1   0   0     2.227023633069     0.00000000     0.00000000
 C      1   2   0     2.859675591614   120.02155201     0.00000000
 C      3   1   2     2.556955937646   115.92002480   203.03307492
 H      1   2   3     2.026084582036   126.55169656   180.19740767
 H      3   1   2     1.951626476331   120.01102307    31.56609218
 H      4   3   1     2.103680627617   126.99328265     2.65749865
 H      4   3   1     2.324486169612   118.91988622   186.04566436

---------------------
BASIS SET INFORMATION
---------------------
There are 3 groups of distinct atoms

 Group   1 Type C   : 17s4p1d contracted to 3s2p1d pattern {881/31/1}
 Group   2 Type O   : 17s4p1d contracted to 3s2p1d pattern {881/31/1}
 Group   3 Type H   : 4s1p contracted to 2s1p pattern {31/1}

Atom   0C    basis set group =>   1
Atom   1O    basis set group =>   2
Atom   2C    basis set group =>   1
Atom   3C    basis set group =>   1
Atom   4H    basis set group =>   3
Atom   5H    basis set group =>   3
Atom   6H    basis set group =>   3
Atom   7H    basis set group =>   3
---------------------------------
AUXILIARY/J BASIS SET INFORMATION
---------------------------------
There are 3 groups of distinct atoms

 Group   1 Type C   : 12s5p4d2f1g contracted to 6s4p3d1f1g pattern {711111/2111/211/2/1}
 Group   2 Type O   : 12s5p4d2f1g contracted to 6s4p3d1f1g pattern {711111/2111/211/2/1}
 Group   3 Type H   : 5s2p1d contracted to 3s1p1d pattern {311/2/1}

Atom   0C    basis set group =>   1
Atom   1O    basis set group =>   2
Atom   2C    basis set group =>   1
Atom   3C    basis set group =>   1
Atom   4H    basis set group =>   3
Atom   5H    basis set group =>   3
Atom   6H    basis set group =>   3
Atom   7H    basis set group =>   3
------------------------------------------------------------------------------
                           ORCA GTO INTEGRAL CALCULATION
                           -- RI-GTO INTEGRALS CHOSEN --
------------------------------------------------------------------------------
------------------------------------------------------------------------------
                   ___                                                        
                  /   \      - P O W E R E D   B Y -                         
                 /     \                                                     
                 |  |  |   _    _      __       _____    __    __             
                 |  |  |  | |  | |    /  \     |  _  \  |  |  /  |          
                  \  \/   | |  | |   /    \    | | | |  |  | /  /          
                 / \  \   | |__| |  /  /\  \   | |_| |  |  |/  /          
                |  |  |   |  __  | /  /__\  \  |    /   |      \           
                |  |  |   | |  | | |   __   |  |    \   |  |\   \          
                \     /   | |  | | |  |  |  |  | |\  \  |  | \   \       
                 \___/    |_|  |_| |__|  |__|  |_| \__\ |__|  \__/        
                                                                              
                      - O R C A' S   B I G   F R I E N D -                    
                                      &                                       
                       - I N T E G R A L  F E E D E R -                       
                                                                              
 v1 FN, 2020, v2 2021                                                         
------------------------------------------------------------------------------


Reading SHARK input file acrolien.255.SHARKINP.tmp ... ok
----------------------
SHARK INTEGRAL PACKAGE
----------------------

Number of atoms                             ...      8
Number of basis functions                   ...    100
Number of shells                            ...     60
Maximum angular momentum                    ...      2
Integral batch strategy                     ... SHARK/LIBINT Hybrid
RI-J (if used) integral strategy            ... SPLIT-RIJ (Revised 2003 algorithm where possible)
Printlevel                                  ...      1
Contraction scheme used                     ... PARTIAL GENERAL contraction
Coulomb Range Separation                    ... NOT USED
Exchange Range Separation                   ... NOT USED
Finite Nucleus Model                        ... NOT USED
Auxiliary Coulomb fitting basis             ... AVAILABLE
   # of basis functions in Aux-J            ...    240
   # of shells in Aux-J                     ...     80
   Maximum angular momentum in Aux-J        ...      4
Auxiliary J/K fitting basis                 ... NOT available
Auxiliary Correlation fitting basis         ... NOT available
Auxiliary 'external' fitting basis          ... NOT available
Integral threshold                          ...     2.500000e-11
Primitive cut-off                           ...     2.500000e-12
Primitive pair pre-selection threshold      ...     2.500000e-12

Calculating pre-screening integrals         ... done (  0.0 sec) Dimension = 60
Calculating pre-screening integrals (ORCA)  ... done (  0.3 sec) Dimension = 36
Organizing shell pair data                  ... done (  0.4 sec)
Shell pair information
Total number of shell pairs                 ...      1830
Shell pairs after pre-screening             ...      1522
Total number of primitive shell pairs       ...      2950
Primitive shell pairs kept                  ...      2269
          la=0 lb=0:    719 shell pairs
          la=1 lb=0:    500 shell pairs
          la=1 lb=1:     77 shell pairs
          la=2 lb=0:    169 shell pairs
          la=2 lb=1:     47 shell pairs
          la=2 lb=2:     10 shell pairs

Calculating one electron integrals          ... done (  0.0 sec)
Calculating RI/J V-Matrix + Cholesky decomp.... done (  1.4 sec)
Calculating Nuclear repulsion               ... done (  0.0 sec) ENN=    103.153078325755 Eh

SHARK setup successfully completed in   3.7 seconds

Maximum memory used throughout the entire GTOINT-calculation: 14.2 MB
-------------------------------------------------------------------------------
                                 ORCA SCF
-------------------------------------------------------------------------------

------------
SCF SETTINGS
------------
Hamiltonian:
 Density Functional     Method          .... DFT(GTOs)
 Exchange Functional    Exchange        .... B88
   X-Alpha parameter    XAlpha          ....  0.666667
   Becke's b parameter  XBeta           ....  0.004200
 Correlation Functional Correlation     .... LYP
 LDA part of GGA corr.  LDAOpt          .... VWN-5
 Gradients option       PostSCFGGA      .... off
 Hybrid DFT is turned on
   Fraction HF Exchange ScalHFX         ....  0.200000
   Scaling of DF-GGA-X  ScalDFX         ....  0.720000
   Scaling of DF-GGA-C  ScalDFC         ....  0.810000
   Scaling of DF-LDA-C  ScalLDAC        ....  1.000000
   Perturbative correction              ....  0.000000
   Density functional embedding theory  .... OFF
   NL short-range parameter             ....  4.800000
 RI-approximation to the Coulomb term is turned on
   Number of AuxJ basis functions       .... 240
   RIJ-COSX (HFX calculated with COS-X)).... on


General Settings:
 Integral files         IntName         .... acrolien.255
 Hartree-Fock type      HFTyp           .... RHF
 Total Charge           Charge          ....    0
 Multiplicity           Mult            ....    1
 Number of Electrons    NEL             ....   30
 Basis Dimension        Dim             ....   76
 Nuclear Repulsion      ENuc            ....    103.1530783258 Eh

Convergence Acceleration:
 DIIS                   CNVDIIS         .... on
   Start iteration      DIISMaxIt       ....    12
   Startup error        DIISStart       ....  0.200000
   # of expansion vecs  DIISMaxEq       ....     5
   Bias factor          DIISBfac        ....   1.050
   Max. coefficient     DIISMaxC        ....  10.000
 Trust-Rad. Augm. Hess. CNVTRAH         .... auto
   Auto Start mean grad. ratio tolernc. ....  1.125000
   Auto Start start iteration           ....    20
   Auto Start num. interpolation iter.  ....    10
   Max. Number of Micro iterations      ....    16
   Max. Number of Macro iterations      .... Maxiter - #DIIS iter
   Number of Davidson start vectors     ....     2
   Converg. threshold I  (grad. norm)   ....   1.000e-05
   Converg. threshold II (energy diff.) ....   1.000e-08
   Grad. Scal. Fac. for Micro threshold ....   0.100
   Minimum threshold for Micro iter.    ....   0.010
   NR start threshold (gradient norm)   ....   0.001
   Initial trust radius                 ....   0.400
   Minimum AH scaling param. (alpha)    ....   1.000
   Maximum AH scaling param. (alpha)    .... 1000.000
   Orbital update algorithm             .... Taylor
   White noise on init. David. guess    .... on
   Maximum white noise                  ....   0.010
   Quad. conv. algorithm                .... NR
 SOSCF                  CNVSOSCF        .... on
   Start iteration      SOSCFMaxIt      ....   150
   Startup grad/error   SOSCFStart      ....  0.003300
 Level Shifting         CNVShift        .... on
   Level shift para.    LevelShift      ....    0.2500
   Turn off err/grad.   ShiftErr        ....    0.0010
 Zerner damping         CNVZerner       .... off
 Static damping         CNVDamp         .... on
   Fraction old density DampFac         ....    0.7000
   Max. Damping (<1)    DampMax         ....    0.9800
   Min. Damping (>=0)   DampMin         ....    0.0000
   Turn off err/grad.   DampErr         ....    0.1000
 Fernandez-Rico         CNVRico         .... off

SCF Procedure:
 Maximum # iterations   MaxIter         ....   500
 SCF integral mode      SCFMode         .... Direct
   Integral package                     .... SHARK and LIBINT hybrid scheme
 Reset frequency        DirectResetFreq ....    20
 Integral Threshold     Thresh          ....  2.500e-11 Eh
 Primitive CutOff       TCut            ....  2.500e-12 Eh

Convergence Tolerance:
 Convergence Check Mode ConvCheckMode   .... Total+1el-Energy
 Convergence forced     ConvForced      .... 1
 Energy Change          TolE            ....  1.000e-08 Eh
 1-El. energy change                    ....  1.000e-05 Eh
 Orbital Gradient       TolG            ....  1.000e-05
 Orbital Rotation angle TolX            ....  1.000e-05
 DIIS Error             TolErr          ....  5.000e-07


Diagonalization of the overlap matrix:
Smallest eigenvalue                        ... 3.418e-03
Time for diagonalization                   ...    0.001 sec
Threshold for overlap eigenvalues          ... 1.000e-08
Number of eigenvalues below threshold      ... 0
Time for construction of square roots      ...    1.522 sec
Total time needed                          ...    1.523 sec

Time for model grid setup =    1.073 sec

------------------------------
INITIAL GUESS: MODEL POTENTIAL
------------------------------
Loading Hartree-Fock densities                     ... done
Calculating cut-offs                               ... done
Initializing the effective Hamiltonian             ... done
Setting up the integral package (SHARK)            ... done
Starting the Coulomb interaction                   ... done (   2.9 sec)
Reading the grid                                   ... done
Mapping shells                                     ... done
Starting the XC term evaluation                    ... done (   0.1 sec)
  promolecular density results
     # of electrons  =     29.998606299
     EX              =    -24.737174559
     EC              =     -0.995178704
     EX+EC           =    -25.732353263
Transforming the Hamiltonian                       ... done (   0.0 sec)
Diagonalizing the Hamiltonian                      ... done (   0.0 sec)
Back transforming the eigenvectors                 ... done (   0.0 sec)
Now organizing SCF variables                       ... done
                      ------------------
                      INITIAL GUESS DONE (   4.0 sec)
                      ------------------
-------------------
DFT GRID GENERATION
-------------------

General Integration Accuracy     IntAcc      ... 4.388
Radial Grid Type                 RadialGrid  ... OptM3 with GC (2021)
Angular Grid (max. ang.)         AngularGrid ... 4 (Lebedev-302)
Angular grid pruning method      GridPruning ... 4 (adaptive)
Weight generation scheme         WeightScheme... Becke
Basis function cutoff            BFCut       ... 1.0000e-11
Integration weight cutoff        WCut        ... 1.0000e-14
Angular grids for H and He will be reduced by one unit
Partially contracted basis set               ... off
Rotationally invariant grid construction     ... off

Total number of grid points                  ...    37424
Total number of batches                      ...      589
Average number of points per batch           ...       63
Average number of grid points per atom       ...     4678
Time for grid setup =    1.511 sec

--------------------
COSX GRID GENERATION
--------------------

GRIDX 1
-------
General Integration Accuracy     IntAcc      ... 3.816
Radial Grid Type                 RadialGrid  ... OptM3 with GC (2021)
Angular Grid (max. ang.)         AngularGrid ... 1 (Lebedev-50)
Angular grid pruning method      GridPruning ... 4 (adaptive)
Weight generation scheme         WeightScheme... Becke
Basis function cutoff            BFCut       ... 1.0000e-11
Integration weight cutoff        WCut        ... 1.0000e-14
Angular grids for H and He will be reduced by one unit
Partially contracted basis set               ... on
Rotationally invariant grid construction     ... off

Total number of grid points                  ...     4793
Total number of batches                      ...       80
Average number of points per batch           ...       59
Average number of grid points per atom       ...      599
UseSFitting                                  ... on

GRIDX 2
-------
General Integration Accuracy     IntAcc      ... 4.020
Radial Grid Type                 RadialGrid  ... OptM3 with GC (2021)
Angular Grid (max. ang.)         AngularGrid ... 2 (Lebedev-110)
Angular grid pruning method      GridPruning ... 4 (adaptive)
Weight generation scheme         WeightScheme... Becke
Basis function cutoff            BFCut       ... 1.0000e-11
Integration weight cutoff        WCut        ... 1.0000e-14
Angular grids for H and He will be reduced by one unit
Partially contracted basis set               ... on
Rotationally invariant grid construction     ... off

Total number of grid points                  ...    10555
Total number of batches                      ...      170
Average number of points per batch           ...       62
Average number of grid points per atom       ...     1319
UseSFitting                                  ... on

GRIDX 3
-------
General Integration Accuracy     IntAcc      ... 4.338
Radial Grid Type                 RadialGrid  ... OptM3 with GC (2021)
Angular Grid (max. ang.)         AngularGrid ... 3 (Lebedev-194)
Angular grid pruning method      GridPruning ... 4 (adaptive)
Weight generation scheme         WeightScheme... Becke
Basis function cutoff            BFCut       ... 1.0000e-11
Integration weight cutoff        WCut        ... 1.0000e-14
Angular grids for H and He will be reduced by one unit
Partially contracted basis set               ... on
Rotationally invariant grid construction     ... off

Total number of grid points                  ...    23329
Total number of batches                      ...      369
Average number of points per batch           ...       63
Average number of grid points per atom       ...     2916
UseSFitting                                  ... on

Time for X-Grid setup             =    8.248 sec

 re-compute Schwartz prescreening matrix in partically contracted basis (1) ...done (   1.759 sec)
--------------
SCF ITERATIONS
--------------
ITER       Energy         Delta-E        Max-DP      RMS-DP      [F,P]     Damp
               ***  Starting incremental Fock matrix formation  ***
  0   -191.6643414257   0.000000000000 0.09282166  0.00396155  0.2514376 0.7000
  1   -191.7249162334  -0.060574807688 0.05738025  0.00258652  0.0971607 0.7000
                               ***Turning on DIIS***
  2   -191.7461704500  -0.021254216604 0.05389899  0.00352762  0.0307716 0.0000
  3   -191.7823723411  -0.036201891100 0.04643378  0.00197450  0.0464863 0.0000
  4   -191.7893858918  -0.007013550770 0.00827282  0.00053472  0.0143804 0.0000
                      *** Initiating the SOSCF procedure ***
                           *** Shutting down DIIS ***
                      *** Re-Reading the Fockian *** 
                      *** Removing any level shift *** 
ITER      Energy       Delta-E        Grad      Rot      Max-DP    RMS-DP
  5   -191.79018436  -0.0007984673  0.000581  0.000581  0.003006  0.000159
               *** Restarting incremental Fock matrix formation ***
  6   -191.79020963  -0.0000252700  0.000540  0.001677  0.002047  0.000117
  7   -191.79020662   0.0000030137  0.000811  0.001009  0.001227  0.000045
  8   -191.79021351  -0.0000068899  0.000071  0.000130  0.000269  0.000018
  9   -191.79021345   0.0000000531  0.000086  0.000067  0.000132  0.000008
 10   -191.79021365  -0.0000002025  0.000007  0.000022  0.000028  0.000001
 11   -191.79021365   0.0000000010  0.000013  0.000018  0.000020  0.000001
                  ***Gradient check signals convergence***
              ***Rediagonalizing the Fockian in SOSCF/NRSCF***

               *****************************************************
               *                     SUCCESS                       *
               *           SCF CONVERGED AFTER  12 CYCLES          *
               *****************************************************

Old exchange energy                            =     -5.025380713 Eh
New exchange energy                            =     -5.025362616 Eh
Exchange energy change after final integration =      0.000018097 Eh
Total energy after final integration           =   -191.790195559 Eh
Final COS-X integration done in                =     1.451 sec

----------------
TOTAL SCF ENERGY
----------------

Total Energy       :         -191.79019556 Eh           -5218.87654 eV

Components:
Nuclear Repulsion  :          103.15307833 Eh            2806.93796 eV
Electronic Energy  :         -294.94327388 Eh           -8025.81451 eV
One Electron Energy:         -463.48679647 Eh          -12612.11692 eV
Two Electron Energy:          168.54352259 Eh            4586.30241 eV
Max COSX asymmetry :            0.00000049 Eh               0.00001 eV

Virial components:
Potential Energy   :         -382.44805297 Eh          -10406.94060 eV
Kinetic Energy     :          190.65785741 Eh            5188.06406 eV
Virial Ratio       :            2.00593911


DFT components:
N(Alpha)           :       15.000001304387 electrons
N(Beta)            :       15.000001304387 electrons
N(Total)           :       30.000002608774 electrons
E(X)               :      -19.976009770205 Eh       
E(C)               :       -1.182465654387 Eh       
E(XC)              :      -21.158475424592 Eh       
DFET-embed. en.    :        0.000000000000 Eh       

---------------
SCF CONVERGENCE
---------------

  Last Energy change         ...   -1.5110e-09  Tolerance :   1.0000e-08
  Last MAX-Density change    ...    1.0069e-15  Tolerance :   1.0000e-07
  Last RMS-Density change    ...    5.0411e-17  Tolerance :   5.0000e-09
  Last Orbital Gradient      ...    1.3746e-06  Tolerance :   1.0000e-05
  Last Orbital Rotation      ...    3.7654e-06  Tolerance :   1.0000e-05

             **** THE GBW FILE WAS UPDATED (acrolien.255.gbw) ****
             **** DENSITY acrolien.255.scfp WAS UPDATED ****
             **** ENERGY FILE WAS UPDATED (acrolien.255.en.tmp) ****
             **** THE GBW FILE WAS UPDATED (acrolien.255.gbw) ****
             **** DENSITY acrolien.255.scfp WAS UPDATED ****
----------------
ORBITAL ENERGIES
----------------

  NO   OCC          E(Eh)            E(eV) 
   0   2.0000     -19.138830      -520.7940 
   1   2.0000     -10.272457      -279.5278 
   2   2.0000     -10.226838      -278.2864 
   3   2.0000     -10.201790      -277.6048 
   4   2.0000      -1.065566       -28.9955 
   5   2.0000      -0.792224       -21.5575 
   6   2.0000      -0.629983       -17.1427 
   7   2.0000      -0.581805       -15.8317 
   8   2.0000      -0.480866       -13.0850 
   9   2.0000      -0.461774       -12.5655 
  10   2.0000      -0.432794       -11.7769 
  11   2.0000      -0.399656       -10.8752 
  12   2.0000      -0.381461       -10.3801 
  13   2.0000      -0.288117        -7.8401 
  14   2.0000      -0.253632        -6.9017 
  15   0.0000      -0.054605        -1.4859 
  16   0.0000       0.033910         0.9227 
  17   0.0000       0.062744         1.7074 
  18   0.0000       0.085641         2.3304 
  19   0.0000       0.122260         3.3269 
  20   0.0000       0.138530         3.7696 
  21   0.0000       0.234574         6.3831 
  22   0.0000       0.291094         7.9211 
  23   0.0000       0.300821         8.1857 
  24   0.0000       0.446395        12.1470 
  25   0.0000       0.451296        12.2804 
  26   0.0000       0.467761        12.7284 
  27   0.0000       0.471005        12.8167 
  28   0.0000       0.509419        13.8620 
  29   0.0000       0.541827        14.7439 
  30   0.0000       0.562371        15.3029 
  31   0.0000       0.602550        16.3962 
  32   0.0000       0.643644        17.5144 
  33   0.0000       0.673629        18.3304 
  34   0.0000       0.698326        19.0024 
  35   0.0000       0.722813        19.6688 
  36   0.0000       0.766168        20.8485 
  37   0.0000       0.854989        23.2654 
  38   0.0000       0.897466        24.4213 
  39   0.0000       0.929416        25.2907 
  40   0.0000       0.959995        26.1228 
  41   0.0000       0.984046        26.7773 
  42   0.0000       1.004418        27.3316 
  43   0.0000       1.044186        28.4137 
  44   0.0000       1.106235        30.1022 
  45   0.0000       1.155799        31.4509 
  46   0.0000       1.198901        32.6238 
  47   0.0000       1.333217        36.2787 
  48   0.0000       1.420871        38.6639 
  49   0.0000       1.452214        39.5168 
  50   0.0000       1.485351        40.4185 
  51   0.0000       1.503849        40.9218 
  52   0.0000       1.560215        42.4556 
  53   0.0000       1.576886        42.9093 
  54   0.0000       1.608926        43.7811 
  55   0.0000       1.644369        44.7456 
  56   0.0000       1.689855        45.9833 
  57   0.0000       1.726436        46.9787 
  58   0.0000       1.760740        47.9122 
  59   0.0000       1.858495        50.5722 
  60   0.0000       1.932939        52.5979 
  61   0.0000       1.949162        53.0394 
  62   0.0000       1.992033        54.2060 
  63   0.0000       2.042163        55.5701 
  64   0.0000       2.138611        58.1946 
  65   0.0000       2.238830        60.9217 
  66   0.0000       2.362589        64.2893 
  67   0.0000       2.419400        65.8352 
  68   0.0000       2.480651        67.5020 
  69   0.0000       2.627503        71.4980 
  70   0.0000       2.704755        73.6001 
  71   0.0000       2.740762        74.5799 
  72   0.0000       2.998516        81.5938 
  73   0.0000       3.131890        85.2231 
  74   0.0000       3.460339        94.1606 
  75   0.0000       3.488861        94.9367 

                    ********************************
                    * MULLIKEN POPULATION ANALYSIS *
                    ********************************

-----------------------
MULLIKEN ATOMIC CHARGES
-----------------------
   0 C :    0.192365
   1 O :   -0.168673
   2 C :   -0.023615
   3 C :   -0.048735
   4 H :   -0.030317
   5 H :   -0.013569
   6 H :    0.040073
   7 H :    0.052470
Sum of atomic charges:    0.0000000

--------------------------------
MULLIKEN REDUCED ORBITAL CHARGES
--------------------------------
  0 C s       :     3.085461  s :     3.085461
      pz      :     0.870290  p :     2.570619
      px      :     0.861917
      py      :     0.838412
      dz2     :     0.041727  d :     0.151555
      dxz     :     0.030324
      dyz     :     0.020787
      dx2y2   :     0.025484
      dxy     :     0.033232
  1 O s       :     3.724692  s :     3.724692
      pz      :     1.490731  p :     4.423606
      px      :     1.468021
      py      :     1.464855
      dz2     :     0.003879  d :     0.020375
      dxz     :     0.007005
      dyz     :     0.002333
      dx2y2   :     0.003762
      dxy     :     0.003396
  2 C s       :     3.154883  s :     3.154883
      pz      :     0.957184  p :     2.813322
      px      :     0.933651
      py      :     0.922486
      dz2     :     0.007299  d :     0.055409
      dxz     :     0.011469
      dyz     :     0.006343
      dx2y2   :     0.014997
      dxy     :     0.015300
  3 C s       :     3.162859  s :     3.162859
      pz      :     0.937080  p :     2.844203
      px      :     0.977846
      py      :     0.929277
      dz2     :     0.005352  d :     0.041673
      dxz     :     0.007612
      dyz     :     0.005717
      dx2y2   :     0.010923
      dxy     :     0.012069
  4 H s       :     1.002515  s :     1.002515
      pz      :     0.016203  p :     0.027802
      px      :     0.003648
      py      :     0.007950
  5 H s       :     0.981774  s :     0.981774
      pz      :     0.010561  p :     0.031794
      px      :     0.005328
      py      :     0.015906
  6 H s       :     0.931573  s :     0.931573
      pz      :     0.010023  p :     0.028354
      px      :     0.005032
      py      :     0.013299
  7 H s       :     0.924515  s :     0.924515
      pz      :     0.003604  p :     0.023014
      px      :     0.011861
      py      :     0.007549


                     *******************************
                     * LOEWDIN POPULATION ANALYSIS *
                     *******************************

----------------------
LOEWDIN ATOMIC CHARGES
----------------------
   0 C :   -0.046279
   1 O :    0.033017
   2 C :   -0.047534
   3 C :   -0.023159
   4 H :   -0.012422
   5 H :    0.017211
   6 H :    0.030077
   7 H :    0.049088

-------------------------------
LOEWDIN REDUCED ORBITAL CHARGES
-------------------------------
  0 C s       :     2.857773  s :     2.857773
      pz      :     0.969024  p :     2.786237
      px      :     0.957468
      py      :     0.859745
      dz2     :     0.110992  d :     0.402268
      dxz     :     0.088434
      dyz     :     0.051850
      dx2y2   :     0.065650
      dxy     :     0.085342
  1 O s       :     3.469588  s :     3.469588
      pz      :     1.518728  p :     4.461659
      px      :     1.513471
      py      :     1.429460
      dz2     :     0.006018  d :     0.035736
      dxz     :     0.014499
      dyz     :     0.003188
      dx2y2   :     0.007272
      dxy     :     0.004759
  2 C s       :     2.847378  s :     2.847378
      pz      :     0.973360  p :     3.023089
      px      :     1.048376
      py      :     1.001353
      dz2     :     0.017673  d :     0.177067
      dxz     :     0.037886
      dyz     :     0.022471
      dx2y2   :     0.050405
      dxy     :     0.048631
  3 C s       :     2.896507  s :     2.896507
      pz      :     0.960862  p :     2.992386
      px      :     1.042025
      py      :     0.989500
      dz2     :     0.016181  d :     0.134266
      dxz     :     0.023241
      dyz     :     0.019766
      dx2y2   :     0.036944
      dxy     :     0.038133
  4 H s       :     0.927974  s :     0.927974
      pz      :     0.047759  p :     0.084447
      px      :     0.012031
      py      :     0.024657
  5 H s       :     0.886521  s :     0.886521
      pz      :     0.030852  p :     0.096268
      px      :     0.018947
      py      :     0.046469
  6 H s       :     0.891019  s :     0.891019
      pz      :     0.027575  p :     0.078904
      px      :     0.014289
      py      :     0.037041
  7 H s       :     0.895221  s :     0.895221
      pz      :     0.009361  p :     0.055691
      px      :     0.027613
      py      :     0.018718


                      *****************************
                      * MAYER POPULATION ANALYSIS *
                      *****************************

  NA   - Mulliken gross atomic population
  ZA   - Total nuclear charge
  QA   - Mulliken gross atomic charge
  VA   - Mayer's total valence
  BVA  - Mayer's bonded valence
  FA   - Mayer's free valence

  ATOM       NA         ZA         QA         VA         BVA        FA
  0 C      5.8076     6.0000     0.1924     4.2150     4.2150     0.0000
  1 O      8.1687     8.0000    -0.1687     2.3577     2.3577    -0.0000
  2 C      6.0236     6.0000    -0.0236     3.9810     3.9810     0.0000
  3 C      6.0487     6.0000    -0.0487     3.9310     3.9310     0.0000
  4 H      1.0303     1.0000    -0.0303     0.9677     0.9677     0.0000
  5 H      1.0136     1.0000    -0.0136     0.9961     0.9961    -0.0000
  6 H      0.9599     1.0000     0.0401     0.9801     0.9801    -0.0000
  7 H      0.9475     1.0000     0.0525     0.9722     0.9722     0.0000

  Mayer bond orders larger than 0.100000
B(  0-C ,  1-O ) :   2.2132 B(  0-C ,  2-C ) :   1.0382 B(  0-C ,  4-H ) :   0.9220 
B(  2-C ,  3-C ) :   1.9377 B(  2-C ,  5-H ) :   0.9559 B(  3-C ,  6-H ) :   0.9459 
B(  3-C ,  7-H ) :   0.9401 

-------
TIMINGS
-------

Total SCF time: 0 days 0 hours 2 min 42 sec 

Total time                  ....     162.559 sec
Sum of individual times     ....     129.877 sec  ( 79.9%)

Fock matrix formation       ....     114.227 sec  ( 70.3%)
  Split-RI-J                ....       0.893 sec  (  0.8% of F)
  Chain of spheres X        ....       8.237 sec  (  7.2% of F)
  XC integration            ....      43.633 sec  ( 38.2% of F)
    Basis function eval.    ....       1.598 sec  (  3.7% of XC)
    Density eval.           ....       0.596 sec  (  1.4% of XC)
    XC-Functional eval.     ....       0.490 sec  (  1.1% of XC)
    XC-Potential eval.      ....       0.582 sec  (  1.3% of XC)
Diagonalization             ....       0.006 sec  (  0.0%)
Density matrix formation    ....       0.001 sec  (  0.0%)
Population analysis         ....       0.022 sec  (  0.0%)
Initial guess               ....       2.969 sec  (  1.8%)
Orbital Transformation      ....       0.000 sec  (  0.0%)
Orbital Orthonormalization  ....       0.000 sec  (  0.0%)
DIIS solution               ....       0.050 sec  (  0.0%)
SOSCF solution              ....       1.769 sec  (  1.1%)
Grid generation             ....      10.832 sec  (  6.7%)

Maximum memory used throughout the entire SCF-calculation: 51.6 MB
------------------------------------------------------------------------------
                        ORCA TD-DFT/TDA CALCULATION
------------------------------------------------------------------------------

Input orbitals are from        ... acrolien.255.gbw
CI-vector output               ... acrolien.255.cis
Tamm-Dancoff approximation     ... operative
CIS-Integral strategy          ... AO-integrals
Integral handling              ... AO integral Direct
Max. core memory used          ... 512 MB
Reference state                ... RHF
Generation of triplets         ... off
Follow IRoot                   ... off
Number of operators            ... 1
Orbital ranges used for CIS calculation:
 Operator 0:  Orbitals   4... 14  to  15... 75
XAS localization array:
 Operator 0:  Orbitals  -1... -1

-------------------
XC-INTEGRATION GRID
-------------------

General Integration Accuracy     IntAcc      ... 3.467
Radial Grid Type                 RadialGrid  ... OptM3 with GC (2021)
Angular Grid (max. ang.)         AngularGrid ... 1 (Lebedev-50)
Angular grid pruning method      GridPruning ... 4 (adaptive)
Weight generation scheme         WeightScheme... Becke
Basis function cutoff            BFCut       ... 1.0000e-11
Integration weight cutoff        WCut        ... 1.0000e-14
Angular grids for H and He will be reduced by one unit
Partially contracted basis set               ... off
Rotationally invariant grid construction     ... off

Total number of grid points                  ...     5489
Total number of batches                      ...       90
Average number of points per batch           ...       60
Average number of grid points per atom       ...      686

---------------------
COSX-INTEGRATION GRID
---------------------

General Integration Accuracy     IntAcc      ... 3.067
Radial Grid Type                 RadialGrid  ... OptM3 with GC (2021)
Angular Grid (max. ang.)         AngularGrid ... 1 (Lebedev-50)
Angular grid pruning method      GridPruning ... 4 (adaptive)
Weight generation scheme         WeightScheme... Becke
Basis function cutoff            BFCut       ... 1.0000e-11
Integration weight cutoff        WCut        ... 1.0000e-14
Angular grids for H and He will be reduced by one unit
Partially contracted basis set               ... on
Rotationally invariant grid construction     ... off

Total number of grid points                  ...     2504
Total number of batches                      ...       46
Average number of points per batch           ...       54
Average number of grid points per atom       ...      313

---------------
TD-DFT XC SETUP
---------------

DFT calculation                         ... on
Name of the grid file                   ... acrolien.255.grid_cis.tmp
Exchange functional (TD-DFT)            ... B88
   X-Alpha parameter    XAlpha (TD-DFT) ...  0.666667
   Becke's b parameter  XBeta (TD-DFT)  ...  0.004200
Correlation functional (TD-DFT)         ... LYP
 LDA part of GGA corr.  LDAOpt (TD-DFT) ... VWN-5
Hybrid DFT                              ... on
   Exchange mixing (TD-DFT)             ...  0.200
   GGA exch. scaling (TD-DFT)           ...  0.720
   GGA corr. scaling (TD-DFT)           ...  0.810

Building densities             ... done
Calculating rho(r) on the grid ... done
Building xc-kernel on the grid ... done
                    *** TD-DFT CALCULATION INITIALIZED ***

------------------------
DAVIDSON-DIAGONALIZATION
------------------------

Dimension of the eigenvalue problem            ...    671
Number of roots to be determined               ...      1
Maximum size of the expansion space            ...     10
Maximum number of iterations                   ...    100
Convergence tolerance for the residual         ...    2.500e-07
Convergence tolerance for the energies         ...    2.500e-07
Orthogonality tolerance                        ...    1.000e-14
Level Shift                                    ...    0.000e+00
Constructing the preconditioner                ... o.k.
Building the initial guess                     ... o.k.
Number of trial vectors determined             ...     10


                       ****Iteration    0****

   Memory handling for direct AO based CIS:
   Memory per vector needed      ...     1 MB
   Memory needed                 ...     0 MB
   Memory available              ...   512 MB
   Number of vectors per batch   ...   512
   Number of batches             ...     1
   Time for densities:            0.000
   Time for RI-J (Direct):        0.071
   Time for K (COSX):             2.222
   Time for XC-Integration:       0.083
   Time for Sigma-Completion:     0.000
   Size of expansion space: 3
   Lowest Energy          :     0.142781919463
   Maximum Energy change  :     0.142781919463 (vector 0)
   Maximum residual norm  :     0.001693056190

                       ****Iteration    1****
   Time for densities:            0.000
   Time for RI-J (Direct):        0.054
   Time for K (COSX):             0.206
   Time for XC-Integration:       0.043
   Time for Sigma-Completion:     0.000
   Size of expansion space: 4
   Lowest Energy          :     0.140896025014
   Maximum Energy change  :     0.001885894449 (vector 0)
   Maximum residual norm  :     0.000338577888

                       ****Iteration    2****
   Time for densities:            0.000
   Time for RI-J (Direct):        0.053
   Time for K (COSX):             0.221
   Time for XC-Integration:       0.043
   Time for Sigma-Completion:     0.000
   Size of expansion space: 5
   Lowest Energy          :     0.140564479816
   Maximum Energy change  :     0.000331545197 (vector 0)
   Maximum residual norm  :     0.000021348570

                       ****Iteration    3****
   Time for densities:            0.000
   Time for RI-J (Direct):        0.053
   Time for K (COSX):             0.192
   Time for XC-Integration:       0.043
   Time for Sigma-Completion:     0.000
   Size of expansion space: 6
   Lowest Energy          :     0.140541700975
   Maximum Energy change  :     0.000022778841 (vector 0)
   Maximum residual norm  :     0.000000594852

                       ****Iteration    4****
   Time for densities:            0.000
   Time for RI-J (Direct):        0.053
   Time for K (COSX):             1.345
   Time for XC-Integration:       0.043
   Time for Sigma-Completion:     0.000
   Size of expansion space: 7
   Lowest Energy          :     0.140541084453
   Maximum Energy change  :     0.000000616523 (vector 0)
   Maximum residual norm  :     0.000000024384

      *** CONVERGENCE OF RESIDUAL NORM REACHED ***

Storing the converged CI vectors               ... acrolien.255.cis1

                 *** DAVIDSON DONE ***

Total time for solving the CIS problem:    15.088sec

------------------------------------
TD-DFT/TDA EXCITED STATES (SINGLETS)
------------------------------------

the weight of the individual excitations are printed if larger than 1.0e-02

STATE  1:  E=   0.140541 au      3.824 eV    30845.2 cm**-1 <S**2> =   0.000000
    14a ->  15a  :     0.969374 (c=  0.98456777)
    14a ->  16a  :     0.021733 (c= -0.14742225)


-----------------------------
TD-DFT/TDA-EXCITATION SPECTRA
-----------------------------

Center of mass = ( -1.1176, -0.1749, -0.4656)
Calculating the Dipole integrals                  ... done
Transforming integrals                            ... done
Calculating the Linear Momentum integrals         ... done
Transforming integrals                            ... done
Calculating angular momentum integrals            ... done
Transforming integrals                            ... done

-----------------------------------------------------------------------------
         ABSORPTION SPECTRUM VIA TRANSITION ELECTRIC DIPOLE MOMENTS
-----------------------------------------------------------------------------
State   Energy    Wavelength  fosc         T2        TX        TY        TZ  
        (cm-1)      (nm)                 (au**2)    (au)      (au)      (au) 
-----------------------------------------------------------------------------
   1   30845.2    324.2   0.000124374   0.00133   0.02708  -0.01729   0.01718

-----------------------------------------------------------------------------
         ABSORPTION SPECTRUM VIA TRANSITION VELOCITY DIPOLE MOMENTS
-----------------------------------------------------------------------------
State   Energy    Wavelength   fosc        P2         PX        PY        PZ  
        (cm-1)      (nm)                 (au**2)     (au)      (au)      (au) 
-----------------------------------------------------------------------------
   1   30845.2    324.2   0.001877401   0.00040   0.00487   0.00750   0.01777

-------------------------------------------------------------------
                             CD SPECTRUM
-------------------------------------------------------------------
State  Energy     Wavelength     R         MX        MY        MZ   
       (cm-1)       (nm)     (1e40*cgs)   (au)      (au)      (au)  
-------------------------------------------------------------------
   1   30845.2    324.2      4.99444   0.31526   0.08232   0.20249

-------------------------------------------------------------------
         CD SPECTRUM VIA TRANSITION VELOCITY DIPOLE MOMENTS        
-------------------------------------------------------------------
State  Energy     Wavelength     R         MX        MY        MZ   
       (cm-1)       (nm)     (1e40*cgs)   (au)      (au)      (au)  
-------------------------------------------------------------------
   1   30845.2    324.2     19.29080   0.31526   0.08232   0.20249

Total run time:       30.299 sec

           *** ORCA-CIS/TD-DFT FINISHED WITHOUT ERROR ***

Maximum memory used throughout the entire CIS-calculation: 48.6 MB

-----------------------
CIS/TD-DFT TOTAL ENERGY
-----------------------

    E(SCF)  =   -191.790195559 Eh
    DE(CIS) =      0.140541084 Eh (Root  1)
    ----------------------------- ---------
    E(tot)  =   -191.649654474 Eh


-------------------------   --------------------
FINAL SINGLE POINT ENERGY      -191.649654474280
-------------------------   --------------------


                            ***************************************
                            *     ORCA property calculations      *
                            ***************************************

                                    ---------------------
                                    Active property flags
                                    ---------------------
   (+) Dipole Moment


------------------------------------------------------------------------------
                       ORCA ELECTRIC PROPERTIES CALCULATION
------------------------------------------------------------------------------

Dipole Moment Calculation                       ... on
Quadrupole Moment Calculation                   ... off
Polarizability Calculation                      ... off
GBWName                                         ... acrolien.255.gbw
Electron density                                ... acrolien.255.scfp
The origin for moment calculation is the CENTER OF MASS  = (-1.117636, -0.174879 -0.465551)

-------------
DIPOLE MOMENT
-------------
                                X             Y             Z
Electronic contribution:     -3.41222      -0.48663      -1.30521
Nuclear contribution   :      4.24610       0.61666       1.83984
                        -----------------------------------------
Total Dipole Moment    :      0.83388       0.13002       0.53463
                        -----------------------------------------
Magnitude (a.u.)       :      0.99904
Magnitude (Debye)      :      2.53936



--------------------
Rotational spectrum 
--------------------
 
Rotational constants in cm-1:     1.403793     0.159123     0.145300 
Rotational constants in MHz : 42084.661914  4770.402500  4355.985234 

 Dipole components along the rotational axes: 
x,y,z [a.u.] :     0.945832     0.246729    -0.206429 
x,y,z [Debye]:     2.404113     0.627134    -0.524700 

 

Timings for individual modules:

Sum of individual times         ...      201.983 sec (=   3.366 min)
GTO integral calculation        ...        6.885 sec (=   0.115 min)   3.4 %
SCF iterations                  ...      162.571 sec (=   2.710 min)  80.5 %
CIS module                      ...       32.528 sec (=   0.542 min)  16.1 %
                             ****ORCA TERMINATED NORMALLY****
TOTAL RUN TIME: 0 days 0 hours 3 minutes 23 seconds 497 msec
