
                                 *****************
                                 * O   R   C   A *
                                 *****************

                                            #,                                       
                                            ###                                      
                                            ####                                     
                                            #####                                    
                                            ######                                   
                                           ########,                                 
                                     ,,################,,,,,                         
                               ,,#################################,,                 
                          ,,##########################################,,             
                       ,#########################################, ''#####,          
                    ,#############################################,,   '####,        
                  ,##################################################,,,,####,       
                ,###########''''           ''''###############################       
              ,#####''   ,,,,##########,,,,          '''####'''          '####       
            ,##' ,,,,###########################,,,                        '##       
           ' ,,###''''                  '''############,,,                           
         ,,##''                                '''############,,,,        ,,,,,,###''
      ,#''                                            '''#######################'''  
     '                                                          ''''####''''         
             ,#######,   #######,   ,#######,      ##                                
            ,#'     '#,  ##    ##  ,#'     '#,    #''#        ######   ,####,        
            ##       ##  ##   ,#'  ##            #'  '#       #        #'  '#        
            ##       ##  #######   ##           ,######,      #####,   #    #        
            '#,     ,#'  ##    ##  '#,     ,#' ,#      #,         ##   #,  ,#        
             '#######'   ##     ##  '#######'  #'      '#     #####' # '####'        



                  #######################################################
                  #                        -***-                        #
                  #          Department of theory and spectroscopy      #
                  #    Directorship and core code : Frank Neese         #
                  #        Max Planck Institute fuer Kohlenforschung    #
                  #                Kaiser Wilhelm Platz 1               #
                  #                 D-45470 Muelheim/Ruhr               #
                  #                      Germany                        #
                  #                                                     #
                  #                  All rights reserved                #
                  #                        -***-                        #
                  #######################################################


                         Program Version 5.0.3 -  RELEASE  -


 With contributions from (in alphabetic order):
   Daniel Aravena         : Magnetic Suceptibility
   Michael Atanasov       : Ab Initio Ligand Field Theory (pilot matlab implementation)
   Alexander A. Auer      : GIAO ZORA, VPT2 properties, NMR spectrum
   Ute Becker             : Parallelization
   Giovanni Bistoni       : ED, misc. LED, open-shell LED, HFLD
   Martin Brehm           : Molecular dynamics
   Dmytro Bykov           : SCF Hessian
   Vijay G. Chilkuri      : MRCI spin determinant printing, contributions to CSF-ICE
   Dipayan Datta          : RHF DLPNO-CCSD density
   Achintya Kumar Dutta   : EOM-CC, STEOM-CC
   Dmitry Ganyushin       : Spin-Orbit,Spin-Spin,Magnetic field MRCI
   Miquel Garcia          : C-PCM and meta-GGA Hessian, CC/C-PCM, Gaussian charge scheme
   Yang Guo               : DLPNO-NEVPT2, F12-NEVPT2, CIM, IAO-localization
   Andreas Hansen         : Spin unrestricted coupled pair/coupled cluster methods
   Benjamin Helmich-Paris : MC-RPA, TRAH-SCF, COSX integrals
   Lee Huntington         : MR-EOM, pCC
   Robert Izsak           : Overlap fitted RIJCOSX, COSX-SCS-MP3, EOM
   Marcus Kettner         : VPT2
   Christian Kollmar      : KDIIS, OOCD, Brueckner-CCSD(T), CCSD density, CASPT2, CASPT2-K
   Simone Kossmann        : Meta GGA functionals, TD-DFT gradient, OOMP2, MP2 Hessian
   Martin Krupicka        : Initial AUTO-CI
   Lucas Lang             : DCDCAS
   Marvin Lechner         : AUTO-CI (C++ implementation), FIC-MRCC
   Dagmar Lenk            : GEPOL surface, SMD
   Dimitrios Liakos       : Extrapolation schemes; Compound Job, initial MDCI parallelization
   Dimitrios Manganas     : Further ROCIS development; embedding schemes
   Dimitrios Pantazis     : SARC Basis sets
   Anastasios Papadopoulos: AUTO-CI, single reference methods and gradients
   Taras Petrenko         : DFT Hessian,TD-DFT gradient, ASA, ECA, R-Raman, ABS, FL, XAS/XES, NRVS
   Peter Pinski           : DLPNO-MP2, DLPNO-MP2 Gradient
   Christoph Reimann      : Effective Core Potentials
   Marius Retegan         : Local ZFS, SOC
   Christoph Riplinger    : Optimizer, TS searches, QM/MM, DLPNO-CCSD(T), (RO)-DLPNO pert. Triples
   Tobias Risthaus        : Range-separated hybrids, TD-DFT gradient, RPA, STAB
   Michael Roemelt        : Original ROCIS implementation
   Masaaki Saitow         : Open-shell DLPNO-CCSD energy and density
   Barbara Sandhoefer     : DKH picture change effects
   Avijit Sen             : IP-ROCIS
   Kantharuban Sivalingam : CASSCF convergence, NEVPT2, FIC-MRCI
   Bernardo de Souza      : ESD, SOC TD-DFT
   Georgi Stoychev        : AutoAux, RI-MP2 NMR, DLPNO-MP2 response
   Willem Van den Heuvel  : Paramagnetic NMR
   Boris Wezisla          : Elementary symmetry handling
   Frank Wennmohs         : Technical directorship


 We gratefully acknowledge several colleagues who have allowed us to
 interface, adapt or use parts of their codes:
   Stefan Grimme, W. Hujo, H. Kruse, P. Pracht,  : VdW corrections, initial TS optimization,
                  C. Bannwarth, S. Ehlert          DFT functionals, gCP, sTDA/sTD-DF
   Ed Valeev, F. Pavosevic, A. Kumar             : LibInt (2-el integral package), F12 methods
   Garnet Chan, S. Sharma, J. Yang, R. Olivares  : DMRG
   Ulf Ekstrom                                   : XCFun DFT Library
   Mihaly Kallay                                 : mrcc  (arbitrary order and MRCC methods)
   Jiri Pittner, Ondrej Demel                    : Mk-CCSD
   Frank Weinhold                                : gennbo (NPA and NBO analysis)
   Christopher J. Cramer and Donald G. Truhlar   : smd solvation model
   Lars Goerigk                                  : TD-DFT with DH, B97 family of functionals
   V. Asgeirsson, H. Jonsson                     : NEB implementation
   FAccTs GmbH                                   : IRC, NEB, NEB-TS, DLPNO-Multilevel, CI-OPT
                                                   MM, QMMM, 2- and 3-layer-ONIOM, Crystal-QMMM,
                                                   LR-CPCM, SF, NACMEs, symmetry and pop. for TD-DFT,
                                                   nearIR, NL-DFT gradient (VV10), updates on ESD,
                                                   ML-optimized integration grids
   S Lehtola, MJT Oliveira, MAL Marques          : LibXC Library
   Liviu Ungur et al                             : ANISO software


 Your calculation uses the libint2 library for the computation of 2-el integrals
 For citations please refer to: http://libint.valeyev.net

 Your ORCA version has been built with support for libXC version: 5.1.0
 For citations please refer to: https://tddft.org/programs/libxc/

 This ORCA versions uses:
   CBLAS   interface :  Fast vector & matrix operations
   LAPACKE interface :  Fast linear algebra routines
   SCALAPACK package :  Parallel linear algebra routines
   Shared memory     :  Shared parallel matrices
   BLAS/LAPACK       :  OpenBLAS 0.3.15  USE64BITINT DYNAMIC_ARCH NO_AFFINITY Haswell SINGLE_THREADED
        Core in use  :  Haswell
   Copyright (c) 2011-2014, The OpenBLAS Project


Your calculation utilizes the geometrical counterpoise correction gCP
Please cite in your paper:
H.Kruse, S. Grimme J.Chem.Phys., 136, (2012), 154101 
   

Your calculation utilizes the atom-pairwise dispersion correction
with the Becke-Johnson damping scheme (D3BJ)
Cite in your paper:
S.Grimme, S.Ehrlich, L.Goerigk, J Comput Chem, (2011), 32, 1456–1465 
S.Grimme, J.Antony, S.Ehrlich and H.Krieg, J.Chem.Phys., 132, (2010), 154104 
   

================================================================================

----- Orbital basis set information -----
Your calculation utilizes the basis: MINIX,
   a combination of small basis sets by S. Grimme (see manual for definitions).

================================================================================
                                        WARNINGS
                       Please study these warnings very carefully!
================================================================================

INFO   : Checking CIS options ...

INFO   : the flag for use of the SHARK integral package has been found!

================================================================================
                                       INPUT FILE
================================================================================
NAME = acrolien.1188.com
|  1> ! HF-3c
|  2> !TightSCF
|  3> %scf
|  4>  ConvForced true
|  5>  convergence tight
|  6>  MaxIter 500
|  7> end
|  8>  
|  9> %tddft 
| 10>  nroots 1
| 11> end
| 12> 
| 13> # 	715
| 14> * xyz 0 1
| 15> 		C   -1.141834  -0.331667  -0.028869
| 16> 		O   -1.984529  -0.681319   0.798899
| 17> 		C   -0.010342   0.489603   0.239740
| 18> 		C    1.181702   0.090118  -0.155770
| 19> 		H   -1.267473  -0.773570  -1.039548
| 20> 		H   -0.193752   1.330955   0.925422
| 21> 		H    1.270499  -0.792463  -0.814536
| 22> 		H    2.166162   0.712985   0.113196
| 23> *
| 24> 
| 25>                          ****END OF INPUT****
================================================================================

                       ****************************
                       * Single Point Calculation *
                       ****************************

---------------------------------
CARTESIAN COORDINATES (ANGSTROEM)
---------------------------------
  C     -1.141834   -0.331667   -0.028869
  O     -1.984529   -0.681319    0.798899
  C     -0.010342    0.489603    0.239740
  C      1.181702    0.090118   -0.155770
  H     -1.267473   -0.773570   -1.039548
  H     -0.193752    1.330955    0.925422
  H      1.270499   -0.792463   -0.814536
  H      2.166162    0.712985    0.113196

----------------------------
CARTESIAN COORDINATES (A.U.)
----------------------------
  NO LB      ZA    FRAG     MASS         X           Y           Z
   0 C     6.0000    0    12.011   -2.157754   -0.626760   -0.054555
   1 O     8.0000    0    15.999   -3.750216   -1.287506    1.509700
   2 C     6.0000    0    12.011   -0.019544    0.925216    0.453043
   3 C     6.0000    0    12.011    2.233093    0.170298   -0.294363
   4 H     1.0000    0     1.008   -2.395177   -1.461835   -1.964461
   5 H     1.0000    0     1.008   -0.366138    2.515140    1.748794
   6 H     1.0000    0     1.008    2.400895   -1.497538   -1.539250
   7 H     1.0000    0     1.008    4.093453    1.347346    0.213909

--------------------------------
INTERNAL COORDINATES (ANGSTROEM)
--------------------------------
 C      0   0   0     0.000000000000     0.00000000     0.00000000
 O      1   0   0     1.231905534509     0.00000000     0.00000000
 C      1   2   0     1.423695667566   125.49376272     0.00000000
 C      3   1   2     1.317947390172   119.16737720   129.41032583
 H      1   2   3     1.110196136172   114.91790472   175.32864156
 H      3   1   2     1.100759838079   115.21502477   319.84090227
 H      4   3   1     1.104901249672   119.58630542     8.98327725
 H      4   3   1     1.195603404330   121.28666370   184.13962755

---------------------------
INTERNAL COORDINATES (A.U.)
---------------------------
 C      0   0   0     0.000000000000     0.00000000     0.00000000
 O      1   0   0     2.327964083083     0.00000000     0.00000000
 C      1   2   0     2.690394909749   125.49376272     0.00000000
 C      3   1   2     2.490559626341   119.16737720   129.41032583
 H      1   2   3     2.097966652302   114.91790472   175.32864156
 H      3   1   2     2.080134633189   115.21502477   319.84090227
 H      4   3   1     2.087960766907   119.58630542     8.98327725
 H      4   3   1     2.259362998967   121.28666370   184.13962755

---------------------
BASIS SET INFORMATION
---------------------
There are 3 groups of distinct atoms

 Group   1 Type C   : 6s3p contracted to 2s1p pattern {33/3}
 Group   2 Type O   : 6s3p contracted to 2s1p pattern {33/3}
 Group   3 Type H   : 3s contracted to 1s pattern {3}

Atom   0C    basis set group =>   1
Atom   1O    basis set group =>   2
Atom   2C    basis set group =>   1
Atom   3C    basis set group =>   1
Atom   4H    basis set group =>   3
Atom   5H    basis set group =>   3
Atom   6H    basis set group =>   3
Atom   7H    basis set group =>   3
------------------------------------------------------------------------------
                           ORCA GTO INTEGRAL CALCULATION
------------------------------------------------------------------------------
------------------------------------------------------------------------------
                   ___                                                        
                  /   \      - P O W E R E D   B Y -                         
                 /     \                                                     
                 |  |  |   _    _      __       _____    __    __             
                 |  |  |  | |  | |    /  \     |  _  \  |  |  /  |          
                  \  \/   | |  | |   /    \    | | | |  |  | /  /          
                 / \  \   | |__| |  /  /\  \   | |_| |  |  |/  /          
                |  |  |   |  __  | /  /__\  \  |    /   |      \           
                |  |  |   | |  | | |   __   |  |    \   |  |\   \          
                \     /   | |  | | |  |  |  |  | |\  \  |  | \   \       
                 \___/    |_|  |_| |__|  |__|  |_| \__\ |__|  \__/        
                                                                              
                      - O R C A' S   B I G   F R I E N D -                    
                                      &                                       
                       - I N T E G R A L  F E E D E R -                       
                                                                              
 v1 FN, 2020, v2 2021                                                         
------------------------------------------------------------------------------


Reading SHARK input file acrolien.1188.SHARKINP.tmp ... ok
----------------------
SHARK INTEGRAL PACKAGE
----------------------

Number of atoms                             ...      8
Number of basis functions                   ...     24
Number of shells                            ...     16
Maximum angular momentum                    ...      1
Integral batch strategy                     ... SHARK/LIBINT Hybrid
RI-J (if used) integral strategy            ... SPLIT-RIJ (Revised 2003 algorithm where possible)
Printlevel                                  ...      1
Contraction scheme used                     ... SEGMENTED contraction
Coulomb Range Separation                    ... NOT USED
Exchange Range Separation                   ... NOT USED
Finite Nucleus Model                        ... NOT USED
Auxiliary Coulomb fitting basis             ... NOT available
Auxiliary J/K fitting basis                 ... NOT available
Auxiliary Correlation fitting basis         ... NOT available
Auxiliary 'external' fitting basis          ... NOT available
Integral threshold                          ...     2.500000e-11
Primitive cut-off                           ...     2.500000e-12
Primitive pair pre-selection threshold      ...     2.500000e-12

Calculating pre-screening integrals         ... done (  0.0 sec) Dimension = 16
Organizing shell pair data                  ... done (  0.1 sec)
Shell pair information
Total number of shell pairs                 ...       136
Shell pairs after pre-screening             ...       133
Total number of primitive shell pairs       ...      1224
Primitive shell pairs kept                  ...       999
          la=0 lb=0:     75 shell pairs
          la=1 lb=0:     48 shell pairs
          la=1 lb=1:     10 shell pairs

Calculating one electron integrals          ... done (  0.0 sec)
Calculating Nuclear repulsion               ... done (  0.0 sec) ENN=    103.684387343869 Eh
Calculating 4-index integrals               ... 
    -> SHARK/Ints2Disk: Thresh =     2.500000e-11 TCut=    2.500000e-12 
    -> calling libint FockFlag=2 Lmax_loc=1
    ->Total LIBINT loop time =    0.000 sec
    -> L=0 0 0 0:     0.003 sec done=      2822 (=100.0%) skipped=         0 
    -> L=1 0 0 0:     0.007 sec done=      3588 (=100.0%) skipped=         0 
    -> L=1 0 1 0:     0.004 sec done=      1175 (=100.0%) skipped=         0 
    -> L=1 1 0 0:     0.003 sec done=       750 (=100.0%) skipped=         0 
    -> L=1 1 1 0:     0.004 sec done=       480 (=100.0%) skipped=         0 
    -> L=1 1 1 1:     0.001 sec done=        55 (=100.0%) skipped=         0 
    ->Total SHARK integral loop time =    0.021 sec
    -> Total Integral generation matrix time =    0.289 sec
    -> Number of small integrals   =       768
    -> Number of medium integrals  =      2439
    -> Number of large integrals   =     40537
    -> Number of MB stored         =         0 MB


SHARK setup successfully completed in   0.9 seconds

Maximum memory used throughout the entire GTOINT-calculation: 29.5 MB
-------------------------------------------------------------------------------
                                 ORCA SCF
-------------------------------------------------------------------------------

------------
SCF SETTINGS
------------
Hamiltonian:
 Ab initio Hamiltonian  Method          .... Hartree-Fock(GTOs)


General Settings:
 Integral files         IntName         .... acrolien.1188
 Hartree-Fock type      HFTyp           .... RHF
 Total Charge           Charge          ....    0
 Multiplicity           Mult            ....    1
 Number of Electrons    NEL             ....   30
 Basis Dimension        Dim             ....   24
 Nuclear Repulsion      ENuc            ....    103.6843873439 Eh

Convergence Acceleration:
 DIIS                   CNVDIIS         .... on
   Start iteration      DIISMaxIt       ....    12
   Startup error        DIISStart       ....  0.200000
   # of expansion vecs  DIISMaxEq       ....     5
   Bias factor          DIISBfac        ....   1.050
   Max. coefficient     DIISMaxC        ....  10.000
 Trust-Rad. Augm. Hess. CNVTRAH         .... auto
   Auto Start mean grad. ratio tolernc. ....  1.125000
   Auto Start start iteration           ....    20
   Auto Start num. interpolation iter.  ....    10
   Max. Number of Micro iterations      ....    16
   Max. Number of Macro iterations      .... Maxiter - #DIIS iter
   Number of Davidson start vectors     ....     2
   Converg. threshold I  (grad. norm)   ....   1.000e-05
   Converg. threshold II (energy diff.) ....   1.000e-08
   Grad. Scal. Fac. for Micro threshold ....   0.100
   Minimum threshold for Micro iter.    ....   0.010
   NR start threshold (gradient norm)   ....   0.001
   Initial trust radius                 ....   0.400
   Minimum AH scaling param. (alpha)    ....   1.000
   Maximum AH scaling param. (alpha)    .... 1000.000
   Orbital update algorithm             .... Taylor
   White noise on init. David. guess    .... on
   Maximum white noise                  ....   0.010
   Quad. conv. algorithm                .... NR
 SOSCF                  CNVSOSCF        .... on
   Start iteration      SOSCFMaxIt      ....   150
   Startup grad/error   SOSCFStart      ....  0.003300
 Level Shifting         CNVShift        .... on
   Level shift para.    LevelShift      ....    0.2500
   Turn off err/grad.   ShiftErr        ....    0.0010
 Zerner damping         CNVZerner       .... off
 Static damping         CNVDamp         .... on
   Fraction old density DampFac         ....    0.7000
   Max. Damping (<1)    DampMax         ....    0.9800
   Min. Damping (>=0)   DampMin         ....    0.0000
   Turn off err/grad.   DampErr         ....    0.1000
 Fernandez-Rico         CNVRico         .... off

SCF Procedure:
 Maximum # iterations   MaxIter         ....   500
 SCF integral mode      SCFMode         .... Conventional
 Integral Threshold     Thresh          ....  2.500e-11 Eh
 Primitive CutOff       TCut            ....  2.500e-12 Eh
 Integral Buffer length BufferLength    .... 1048576
 Integral index format  IndFormat       ....     0
 Integral value format  ValFormat       ....     0
 Integral Storage       Thresh          ....  2.500e-11 Eh

Convergence Tolerance:
 Convergence Check Mode ConvCheckMode   .... Total+1el-Energy
 Convergence forced     ConvForced      .... 1
 Energy Change          TolE            ....  1.000e-08 Eh
 1-El. energy change                    ....  1.000e-05 Eh
 Orbital Gradient       TolG            ....  1.000e-05
 Orbital Rotation angle TolX            ....  1.000e-05
 DIIS Error             TolErr          ....  5.000e-07


Diagonalization of the overlap matrix:
Smallest eigenvalue                        ... 1.765e-01
Time for diagonalization                   ...    0.000 sec
Threshold for overlap eigenvalues          ... 1.000e-08
Number of eigenvalues below threshold      ... 0
Time for construction of square roots      ...    0.330 sec
Total time needed                          ...    0.363 sec

--------------------------------
INITIAL GUESS: MINIMAL BASIS EHT
--------------------------------
The minimal basis has 24 functions
EHT matrix was diagonalized
Basis set overlap was calculated now projecting the orbitals
Using GuessMode=FMatrix for the initial guess
C*T matrix was formed
Effective Fockian was calculated
Effective Fockian was diagonalized
Initial density was built
                      ------------------
                      INITIAL GUESS DONE
                      ------------------

 InCore treatment chosen:
   Memory dedicated               ...    1024 MB
   Memory needed                  ...      0 MB
   Number of tiny    integrals    ...     768
   Number of small   integrals    ...    2439
   Number of regular integrals    ...   40537

--------------
SCF ITERATIONS
--------------
ITER       Energy         Delta-E        Max-DP      RMS-DP      [F,P]     Damp
  0   -189.0061067167   0.000000000000 0.13677771  0.01542473  0.2475507 0.7000
  1   -189.1380983095  -0.131991592804 0.10852940  0.01223223  0.1788642 0.7000
                               ***Turning on DIIS***
  2   -189.2214246356  -0.083326326181 0.06634401  0.00774268  0.1282985 0.7000
  3   -189.2409362322  -0.019511596506 0.11201167  0.01440326  0.0919890 0.0000
  4   -189.4021785292  -0.161242297016 0.01559239  0.00178928  0.0073771 0.0000
                      *** Initiating the SOSCF procedure ***
                           *** Shutting down DIIS ***
                      *** Re-Reading the Fockian *** 
                      *** Removing any level shift *** 
ITER      Energy       Delta-E        Grad      Rot      Max-DP    RMS-DP
  5   -189.40239617  -0.0002176442  0.002847  0.002847  0.005804  0.000756
  6   -189.40406843  -0.0016722543  0.000966  0.001324  0.002006  0.000328
  7   -189.40408695  -0.0000185237  0.000518  0.000975  0.001850  0.000269
  8   -189.40409116  -0.0000042131  0.000150  0.000197  0.000645  0.000054
  9   -189.40409160  -0.0000004378  0.000067  0.000174  0.000285  0.000033
 10   -189.40409171  -0.0000001064  0.000034  0.000160  0.000281  0.000025
 11   -189.40409174  -0.0000000318  0.000014  0.000058  0.000119  0.000009
 12   -189.40409175  -0.0000000058  0.000008  0.000032  0.000073  0.000006
 13   -189.40409175  -0.0000000021  0.000003  0.000006  0.000013  0.000002
                 **** Energy Check signals convergence ****
              ***Rediagonalizing the Fockian in SOSCF/NRSCF***

               *****************************************************
               *                     SUCCESS                       *
               *           SCF CONVERGED AFTER  14 CYCLES          *
               *****************************************************


----------------
TOTAL SCF ENERGY
----------------

Total Energy       :         -189.40409175 Eh           -5153.94736 eV

Components:
Nuclear Repulsion  :          103.68438734 Eh            2821.39562 eV
Electronic Energy  :         -293.08847909 Eh           -7975.34297 eV
One Electron Energy:         -462.37300574 Eh          -12581.80913 eV
Two Electron Energy:          169.28452665 Eh            4606.46616 eV

Virial components:
Potential Energy   :         -378.53120048 Eh          -10300.35763 eV
Kinetic Energy     :          189.12710873 Eh            5146.41027 eV
Virial Ratio       :            2.00146453


---------------
SCF CONVERGENCE
---------------

  Last Energy change         ...   -2.2607e-10  Tolerance :   1.0000e-08
  Last MAX-Density change    ...    4.0395e-06  Tolerance :   1.0000e-07
  Last RMS-Density change    ...    5.5173e-07  Tolerance :   5.0000e-09
  Last Orbital Gradient      ...    8.6589e-07  Tolerance :   1.0000e-05
  Last Orbital Rotation      ...    2.6138e-06  Tolerance :   1.0000e-05

             **** THE GBW FILE WAS UPDATED (acrolien.1188.gbw) ****
             **** DENSITY acrolien.1188.scfp WAS UPDATED ****
             **** ENERGY FILE WAS UPDATED (acrolien.1188.en.tmp) ****
             **** THE GBW FILE WAS UPDATED (acrolien.1188.gbw) ****
             **** DENSITY acrolien.1188.scfp WAS UPDATED ****
----------------
ORBITAL ENERGIES
----------------

  NO   OCC          E(Eh)            E(eV) 
   0   2.0000     -20.353155      -553.8375 
   1   2.0000     -11.287697      -307.1539 
   2   2.0000     -11.195048      -304.6328 
   3   2.0000     -11.193683      -304.5956 
   4   2.0000      -1.383660       -37.6513 
   5   2.0000      -1.096530       -29.8381 
   6   2.0000      -0.876936       -23.8626 
   7   2.0000      -0.773009       -21.0347 
   8   2.0000      -0.667335       -18.1591 
   9   2.0000      -0.635839       -17.3021 
  10   2.0000      -0.584229       -15.8977 
  11   2.0000      -0.535261       -14.5652 
  12   2.0000      -0.510086       -13.8802 
  13   2.0000      -0.411090       -11.1863 
  14   2.0000      -0.398415       -10.8414 
  15   0.0000       0.145263         3.9528 
  16   0.0000       0.276468         7.5231 
  17   0.0000       0.529236        14.4013 
  18   0.0000       0.593544        16.1511 
  19   0.0000       0.612848        16.6765 
  20   0.0000       0.751245        20.4424 
  21   0.0000       0.805581        21.9210 
  22   0.0000       0.917266        24.9601 
  23   0.0000       1.004493        27.3336 

                    ********************************
                    * MULLIKEN POPULATION ANALYSIS *
                    ********************************

-----------------------
MULLIKEN ATOMIC CHARGES
-----------------------
   0 C :    0.154047
   1 O :   -0.347360
   2 C :   -0.187827
   3 C :   -0.208941
   4 H :    0.135718
   5 H :    0.160599
   6 H :    0.141627
   7 H :    0.152137
Sum of atomic charges:   -0.0000000

--------------------------------
MULLIKEN REDUCED ORBITAL CHARGES
--------------------------------
  0 C s       :     3.060532  s :     3.060532
      pz      :     0.981683  p :     2.785421
      px      :     0.881014
      py      :     0.922724
  1 O s       :     3.841246  s :     3.841246
      pz      :     1.653107  p :     4.506114
      px      :     1.432068
      py      :     1.420939
  2 C s       :     3.073371  s :     3.073371
      pz      :     1.058500  p :     3.114456
      px      :     0.997642
      py      :     1.058314
  3 C s       :     3.154525  s :     3.154525
      pz      :     0.979143  p :     3.054416
      px      :     1.048111
      py      :     1.027162
  4 H s       :     0.864282  s :     0.864282
  5 H s       :     0.839401  s :     0.839401
  6 H s       :     0.858373  s :     0.858373
  7 H s       :     0.847863  s :     0.847863


                     *******************************
                     * LOEWDIN POPULATION ANALYSIS *
                     *******************************

----------------------
LOEWDIN ATOMIC CHARGES
----------------------
   0 C :    0.142167
   1 O :   -0.261572
   2 C :   -0.138904
   3 C :   -0.122513
   4 H :    0.073310
   5 H :    0.106538
   6 H :    0.092698
   7 H :    0.108276

-------------------------------
LOEWDIN REDUCED ORBITAL CHARGES
-------------------------------
  0 C s       :     2.979102  s :     2.979102
      pz      :     1.006195  p :     2.878731
      px      :     0.933255
      py      :     0.939281
  1 O s       :     3.716988  s :     3.716988
      pz      :     1.671177  p :     4.544583
      px      :     1.449453
      py      :     1.423953
  2 C s       :     2.958814  s :     2.958814
      pz      :     1.056859  p :     3.180090
      px      :     1.059114
      py      :     1.064118
  3 C s       :     3.027045  s :     3.027045
      pz      :     0.983598  p :     3.095469
      px      :     1.082750
      py      :     1.029121
  4 H s       :     0.926690  s :     0.926690
  5 H s       :     0.893462  s :     0.893462
  6 H s       :     0.907302  s :     0.907302
  7 H s       :     0.891724  s :     0.891724


                      *****************************
                      * MAYER POPULATION ANALYSIS *
                      *****************************

  NA   - Mulliken gross atomic population
  ZA   - Total nuclear charge
  QA   - Mulliken gross atomic charge
  VA   - Mayer's total valence
  BVA  - Mayer's bonded valence
  FA   - Mayer's free valence

  ATOM       NA         ZA         QA         VA         BVA        FA
  0 C      5.8460     6.0000     0.1540     3.8857     3.8857    -0.0000
  1 O      8.3474     8.0000    -0.3474     2.0434     2.0434    -0.0000
  2 C      6.1878     6.0000    -0.1878     3.9734     3.9734    -0.0000
  3 C      6.2089     6.0000    -0.2089     3.9451     3.9451    -0.0000
  4 H      0.8643     1.0000     0.1357     0.9816     0.9816    -0.0000
  5 H      0.8394     1.0000     0.1606     0.9742     0.9742    -0.0000
  6 H      0.8584     1.0000     0.1416     0.9799     0.9799    -0.0000
  7 H      0.8479     1.0000     0.1521     0.9769     0.9769    -0.0000

  Mayer bond orders larger than 0.100000
B(  0-C ,  1-O ) :   1.9041 B(  0-C ,  2-C ) :   1.0371 B(  0-C ,  4-H ) :   0.9269 
B(  2-C ,  3-C ) :   1.9540 B(  2-C ,  5-H ) :   0.9469 B(  3-C ,  6-H ) :   0.9625 
B(  3-C ,  7-H ) :   0.9580 

-------
TIMINGS
-------

Total SCF time: 0 days 0 hours 0 min 4 sec 

Total time                  ....       4.834 sec
Sum of individual times     ....       1.100 sec  ( 22.8%)

Fock matrix formation       ....       0.110 sec  (  2.3%)
Diagonalization             ....       0.001 sec  (  0.0%)
Density matrix formation    ....       0.000 sec  (  0.0%)
Population analysis         ....       0.389 sec  (  8.1%)
Initial guess               ....       0.002 sec  (  0.0%)
Orbital Transformation      ....       0.000 sec  (  0.0%)
Orbital Orthonormalization  ....       0.000 sec  (  0.0%)
DIIS solution               ....       0.001 sec  (  0.0%)
SOSCF solution              ....       0.597 sec  ( 12.3%)

Maximum memory used throughout the entire SCF-calculation: 225.0 MB
------------------------------------------------------------------------------
                         ORCA CIS CALCULATION
------------------------------------------------------------------------------

Input orbitals are from        ... acrolien.1188.gbw
CI-vector output               ... acrolien.1188.cis
Tamm-Dancoff approximation     ... operative
CIS-Integral strategy          ... AO-integrals
Integral handling              ... AO integral Conventional
Reference state                ... RHF
Generation of triplets         ... off
Follow IRoot                   ... off
Number of operators            ... 1
Orbital ranges used for CIS calculation:
 Operator 0:  Orbitals   4... 14  to  15... 23
XAS localization array:
 Operator 0:  Orbitals  -1... -1

------------------------
DAVIDSON-DIAGONALIZATION
------------------------

Dimension of the eigenvalue problem            ...     99
Number of roots to be determined               ...      1
Maximum size of the expansion space            ...     10
Maximum number of iterations                   ...    100
Convergence tolerance for the residual         ...    2.500e-07
Convergence tolerance for the energies         ...    2.500e-07
Orthogonality tolerance                        ...    1.000e-14
Level Shift                                    ...    0.000e+00
Constructing the preconditioner                ... o.k.
Building the initial guess                     ... o.k.
Number of trial vectors determined             ...     10


                       ****Iteration    0****

   Memory handling for direct AO based CIS:
   Memory per vector needed      ...     1 MB
   Memory needed                 ...     0 MB
   Memory available              ...   512 MB
   Number of vectors per batch   ...   512
   Number of batches             ...     1
   Time for densities:            0.000
   SHARK[4]
   Time for Sigma-Completion:     0.000
   Size of expansion space: 3
   Lowest Energy          :     0.215071834922
   Maximum Energy change  :     0.215071834922 (vector 0)
   Maximum residual norm  :     0.016435162662

                       ****Iteration    1****
   Time for densities:            0.000
   SHARK[4]
   Time for Sigma-Completion:     0.000
   Size of expansion space: 4
   Lowest Energy          :     0.151526880059
   Maximum Energy change  :     0.063544954863 (vector 0)
   Maximum residual norm  :     0.001752324420

                       ****Iteration    2****
   Time for densities:            0.000
   SHARK[4]
   Time for Sigma-Completion:     0.000
   Size of expansion space: 5
   Lowest Energy          :     0.146767133428
   Maximum Energy change  :     0.004759746631 (vector 0)
   Maximum residual norm  :     0.000152249501

                       ****Iteration    3****
   Time for densities:            0.000
   SHARK[4]
   Time for Sigma-Completion:     0.000
   Size of expansion space: 6
   Lowest Energy          :     0.146526141081
   Maximum Energy change  :     0.000240992347 (vector 0)
   Maximum residual norm  :     0.000010731954

                       ****Iteration    4****
   Time for densities:            0.000
   SHARK[4]
   Time for Sigma-Completion:     0.000
   Size of expansion space: 7
   Lowest Energy          :     0.146507532364
   Maximum Energy change  :     0.000018608717 (vector 0)
   Maximum residual norm  :     0.000000833773

                       ****Iteration    5****
   Time for densities:            0.000
   SHARK[4]
   Time for Sigma-Completion:     0.000
   Size of expansion space: 8
   Lowest Energy          :     0.146505780923
   Maximum Energy change  :     0.000001751441 (vector 0)
   Maximum residual norm  :     0.000000087628

      *** CONVERGENCE OF RESIDUAL NORM REACHED ***

Storing the converged CI vectors               ... acrolien.1188.cis1

                 *** DAVIDSON DONE ***

Total time for solving the CIS problem:     2.238sec

-----------------------------
CIS-EXCITED STATES (SINGLETS)
-----------------------------

the weight of the individual excitations are printed if larger than 1.0e-02

STATE  1:  E=   0.146506 au      3.987 eV    32154.3 cm**-1 <S**2> =   0.000000
     8a ->  15a  :     0.011067 (c= -0.10520147)
    11a ->  15a  :     0.020434 (c=  0.14294788)
    11a ->  16a  :     0.011713 (c=  0.10822557)
    13a ->  15a  :     0.723318 (c= -0.85048115)
    13a ->  16a  :     0.184487 (c= -0.42951978)
    14a ->  15a  :     0.020923 (c=  0.14464751)


----------------------
CIS-EXCITATION SPECTRA
----------------------

Center of mass = ( -0.9911, -0.2508,  0.4254)
Calculating the Dipole integrals                  ... done
Transforming integrals                            ... done
Calculating the Linear Momentum integrals         ... done
Transforming integrals                            ... done
Calculating angular momentum integrals            ... done
Transforming integrals                            ... done

-----------------------------------------------------------------------------
         ABSORPTION SPECTRUM VIA TRANSITION ELECTRIC DIPOLE MOMENTS
-----------------------------------------------------------------------------
State   Energy    Wavelength  fosc         T2        TX        TY        TZ  
        (cm-1)      (nm)                 (au**2)    (au)      (au)      (au) 
-----------------------------------------------------------------------------
   1   32154.3    311.0   0.000023377   0.00024   0.01045  -0.01041  -0.00465

-----------------------------------------------------------------------------
         ABSORPTION SPECTRUM VIA TRANSITION VELOCITY DIPOLE MOMENTS
-----------------------------------------------------------------------------
State   Energy    Wavelength   fosc        P2         PX        PY        PZ  
        (cm-1)      (nm)                 (au**2)     (au)      (au)      (au) 
-----------------------------------------------------------------------------
   1   32154.3    311.0   0.000734203   0.00016  -0.00182   0.01119  -0.00572

-------------------------------------------------------------------
                             CD SPECTRUM
-------------------------------------------------------------------
State  Energy     Wavelength     R         MX        MY        MZ   
       (cm-1)       (nm)     (1e40*cgs)   (au)      (au)      (au)  
-------------------------------------------------------------------
   1   32154.3    311.0     -1.60600  -0.37523  -0.19951   0.33588

-------------------------------------------------------------------
         CD SPECTRUM VIA TRANSITION VELOCITY DIPOLE MOMENTS        
-------------------------------------------------------------------
State  Energy     Wavelength     R         MX        MY        MZ   
       (cm-1)       (nm)     (1e40*cgs)   (au)      (au)      (au)  
-------------------------------------------------------------------
   1   32154.3    311.0    -11.17730  -0.37523  -0.19951   0.33588

Total run time:        3.170 sec

           *** ORCA-CIS/TD-DFT FINISHED WITHOUT ERROR ***

Maximum memory used throughout the entire CIS-calculation: 51.7 MB

-----------------------
CIS/TD-DFT TOTAL ENERGY
-----------------------

    E(SCF)  =   -189.404091749 Eh
    DE(CIS) =      0.146505781 Eh (Root  1)
    ----------------------------- ---------
    E(tot)  =   -189.257585968 Eh



-------------------------------------------------------------------------------
                          DFT DISPERSION CORRECTION                            
                                                                               
                              DFTD3 V3.1  Rev 1                                
                          USING Becke-Johnson damping                          
-------------------------------------------------------------------------------
Hartree-Fock is recognized
Active option DFTDOPT                   ...         4   

molecular C6(AA) [au] = 660.894812 


            DFT-D V3
 parameters
 using HF/MINIX parameters
 s6 scaling factor         :     1.0000 
 a1 scaling factor         :     0.4171 
 s8 scaling factor         :     0.8777 
 a2 scaling factor         :     2.9149 
 ad hoc parameters k1-k3   :    16.0000     1.3333    -4.0000 

 Edisp/kcal,au: -16.083598812417  -0.025630843456 
 E6   /kcal   :  -8.899531390 
 E8   /kcal   :  -7.184067422 
 % E8         :  44.667039424 

-------------------------   ----------------
Dispersion correction           -0.025630843
-------------------------   ----------------

------------------   -----------------
gCP+bas correction        -0.046000411
------------------   -----------------
----------------------------   ----------------
Total correction to HF/MINIX       -0.071631254
----------------------------   ----------------


-------------------------   --------------------
FINAL SINGLE POINT ENERGY      -189.329217222294
-------------------------   --------------------


                            ***************************************
                            *     ORCA property calculations      *
                            ***************************************

                                    ---------------------
                                    Active property flags
                                    ---------------------
   (+) Dipole Moment


------------------------------------------------------------------------------
                       ORCA ELECTRIC PROPERTIES CALCULATION
------------------------------------------------------------------------------

Dipole Moment Calculation                       ... on
Quadrupole Moment Calculation                   ... off
Polarizability Calculation                      ... off
GBWName                                         ... acrolien.1188.gbw
Electron density                                ... acrolien.1188.scfp
The origin for moment calculation is the CENTER OF MASS  = (-0.991129, -0.250754  0.425425)

-------------
DIPOLE MOMENT
-------------
                                X             Y             Z
Electronic contribution:     -2.83298      -0.62306       0.99307
Nuclear contribution   :      3.79994       0.93821      -1.60139
                        -----------------------------------------
Total Dipole Moment    :      0.96697       0.31514      -0.60832
                        -----------------------------------------
Magnitude (a.u.)       :      1.18507
Magnitude (Debye)      :      3.01221



--------------------
Rotational spectrum 
--------------------
 
Rotational constants in cm-1:     1.282954     0.162599     0.153546 
Rotational constants in MHz : 38461.986007  4874.581783  4603.188460 

 Dipole components along the rotational axes: 
x,y,z [a.u.] :    -1.126040    -0.233544     0.286154 
x,y,z [Debye]:    -2.862165    -0.593622     0.727345 

 

Timings for individual modules:

Sum of individual times         ...       10.804 sec (=   0.180 min)
GTO integral calculation        ...        1.826 sec (=   0.030 min)  16.9 %
SCF iterations                  ...        5.698 sec (=   0.095 min)  52.7 %
CIS module                      ...        3.280 sec (=   0.055 min)  30.4 %
                             ****ORCA TERMINATED NORMALLY****
TOTAL RUN TIME: 0 days 0 hours 0 minutes 16 seconds 65 msec
