
                                 *****************
                                 * O   R   C   A *
                                 *****************

                                            #,                                       
                                            ###                                      
                                            ####                                     
                                            #####                                    
                                            ######                                   
                                           ########,                                 
                                     ,,################,,,,,                         
                               ,,#################################,,                 
                          ,,##########################################,,             
                       ,#########################################, ''#####,          
                    ,#############################################,,   '####,        
                  ,##################################################,,,,####,       
                ,###########''''           ''''###############################       
              ,#####''   ,,,,##########,,,,          '''####'''          '####       
            ,##' ,,,,###########################,,,                        '##       
           ' ,,###''''                  '''############,,,                           
         ,,##''                                '''############,,,,        ,,,,,,###''
      ,#''                                            '''#######################'''  
     '                                                          ''''####''''         
             ,#######,   #######,   ,#######,      ##                                
            ,#'     '#,  ##    ##  ,#'     '#,    #''#        ######   ,####,        
            ##       ##  ##   ,#'  ##            #'  '#       #        #'  '#        
            ##       ##  #######   ##           ,######,      #####,   #    #        
            '#,     ,#'  ##    ##  '#,     ,#' ,#      #,         ##   #,  ,#        
             '#######'   ##     ##  '#######'  #'      '#     #####' # '####'        



                  #######################################################
                  #                        -***-                        #
                  #          Department of theory and spectroscopy      #
                  #    Directorship and core code : Frank Neese         #
                  #        Max Planck Institute fuer Kohlenforschung    #
                  #                Kaiser Wilhelm Platz 1               #
                  #                 D-45470 Muelheim/Ruhr               #
                  #                      Germany                        #
                  #                                                     #
                  #                  All rights reserved                #
                  #                        -***-                        #
                  #######################################################


                         Program Version 5.0.3 -  RELEASE  -


 With contributions from (in alphabetic order):
   Daniel Aravena         : Magnetic Suceptibility
   Michael Atanasov       : Ab Initio Ligand Field Theory (pilot matlab implementation)
   Alexander A. Auer      : GIAO ZORA, VPT2 properties, NMR spectrum
   Ute Becker             : Parallelization
   Giovanni Bistoni       : ED, misc. LED, open-shell LED, HFLD
   Martin Brehm           : Molecular dynamics
   Dmytro Bykov           : SCF Hessian
   Vijay G. Chilkuri      : MRCI spin determinant printing, contributions to CSF-ICE
   Dipayan Datta          : RHF DLPNO-CCSD density
   Achintya Kumar Dutta   : EOM-CC, STEOM-CC
   Dmitry Ganyushin       : Spin-Orbit,Spin-Spin,Magnetic field MRCI
   Miquel Garcia          : C-PCM and meta-GGA Hessian, CC/C-PCM, Gaussian charge scheme
   Yang Guo               : DLPNO-NEVPT2, F12-NEVPT2, CIM, IAO-localization
   Andreas Hansen         : Spin unrestricted coupled pair/coupled cluster methods
   Benjamin Helmich-Paris : MC-RPA, TRAH-SCF, COSX integrals
   Lee Huntington         : MR-EOM, pCC
   Robert Izsak           : Overlap fitted RIJCOSX, COSX-SCS-MP3, EOM
   Marcus Kettner         : VPT2
   Christian Kollmar      : KDIIS, OOCD, Brueckner-CCSD(T), CCSD density, CASPT2, CASPT2-K
   Simone Kossmann        : Meta GGA functionals, TD-DFT gradient, OOMP2, MP2 Hessian
   Martin Krupicka        : Initial AUTO-CI
   Lucas Lang             : DCDCAS
   Marvin Lechner         : AUTO-CI (C++ implementation), FIC-MRCC
   Dagmar Lenk            : GEPOL surface, SMD
   Dimitrios Liakos       : Extrapolation schemes; Compound Job, initial MDCI parallelization
   Dimitrios Manganas     : Further ROCIS development; embedding schemes
   Dimitrios Pantazis     : SARC Basis sets
   Anastasios Papadopoulos: AUTO-CI, single reference methods and gradients
   Taras Petrenko         : DFT Hessian,TD-DFT gradient, ASA, ECA, R-Raman, ABS, FL, XAS/XES, NRVS
   Peter Pinski           : DLPNO-MP2, DLPNO-MP2 Gradient
   Christoph Reimann      : Effective Core Potentials
   Marius Retegan         : Local ZFS, SOC
   Christoph Riplinger    : Optimizer, TS searches, QM/MM, DLPNO-CCSD(T), (RO)-DLPNO pert. Triples
   Tobias Risthaus        : Range-separated hybrids, TD-DFT gradient, RPA, STAB
   Michael Roemelt        : Original ROCIS implementation
   Masaaki Saitow         : Open-shell DLPNO-CCSD energy and density
   Barbara Sandhoefer     : DKH picture change effects
   Avijit Sen             : IP-ROCIS
   Kantharuban Sivalingam : CASSCF convergence, NEVPT2, FIC-MRCI
   Bernardo de Souza      : ESD, SOC TD-DFT
   Georgi Stoychev        : AutoAux, RI-MP2 NMR, DLPNO-MP2 response
   Willem Van den Heuvel  : Paramagnetic NMR
   Boris Wezisla          : Elementary symmetry handling
   Frank Wennmohs         : Technical directorship


 We gratefully acknowledge several colleagues who have allowed us to
 interface, adapt or use parts of their codes:
   Stefan Grimme, W. Hujo, H. Kruse, P. Pracht,  : VdW corrections, initial TS optimization,
                  C. Bannwarth, S. Ehlert          DFT functionals, gCP, sTDA/sTD-DF
   Ed Valeev, F. Pavosevic, A. Kumar             : LibInt (2-el integral package), F12 methods
   Garnet Chan, S. Sharma, J. Yang, R. Olivares  : DMRG
   Ulf Ekstrom                                   : XCFun DFT Library
   Mihaly Kallay                                 : mrcc  (arbitrary order and MRCC methods)
   Jiri Pittner, Ondrej Demel                    : Mk-CCSD
   Frank Weinhold                                : gennbo (NPA and NBO analysis)
   Christopher J. Cramer and Donald G. Truhlar   : smd solvation model
   Lars Goerigk                                  : TD-DFT with DH, B97 family of functionals
   V. Asgeirsson, H. Jonsson                     : NEB implementation
   FAccTs GmbH                                   : IRC, NEB, NEB-TS, DLPNO-Multilevel, CI-OPT
                                                   MM, QMMM, 2- and 3-layer-ONIOM, Crystal-QMMM,
                                                   LR-CPCM, SF, NACMEs, symmetry and pop. for TD-DFT,
                                                   nearIR, NL-DFT gradient (VV10), updates on ESD,
                                                   ML-optimized integration grids
   S Lehtola, MJT Oliveira, MAL Marques          : LibXC Library
   Liviu Ungur et al                             : ANISO software


 Your calculation uses the libint2 library for the computation of 2-el integrals
 For citations please refer to: http://libint.valeyev.net

 Your ORCA version has been built with support for libXC version: 5.1.0
 For citations please refer to: https://tddft.org/programs/libxc/

 This ORCA versions uses:
   CBLAS   interface :  Fast vector & matrix operations
   LAPACKE interface :  Fast linear algebra routines
   SCALAPACK package :  Parallel linear algebra routines
   Shared memory     :  Shared parallel matrices
   BLAS/LAPACK       :  OpenBLAS 0.3.15  USE64BITINT DYNAMIC_ARCH NO_AFFINITY Haswell SINGLE_THREADED
        Core in use  :  Haswell
   Copyright (c) 2011-2014, The OpenBLAS Project


Your calculation utilizes the geometrical counterpoise correction gCP
Please cite in your paper:
H.Kruse, S. Grimme J.Chem.Phys., 136, (2012), 154101 
   

Your calculation utilizes the atom-pairwise dispersion correction
with the Becke-Johnson damping scheme (D3BJ)
Cite in your paper:
S.Grimme, S.Ehrlich, L.Goerigk, J Comput Chem, (2011), 32, 1456–1465 
S.Grimme, J.Antony, S.Ehrlich and H.Krieg, J.Chem.Phys., 132, (2010), 154104 
   

================================================================================

----- Orbital basis set information -----
Your calculation utilizes the basis: MINIX,
   a combination of small basis sets by S. Grimme (see manual for definitions).

================================================================================
                                        WARNINGS
                       Please study these warnings very carefully!
================================================================================

INFO   : Checking CIS options ...

INFO   : the flag for use of the SHARK integral package has been found!

================================================================================
                                       INPUT FILE
================================================================================
NAME = acrolien.987.com
|  1> ! HF-3c
|  2> !TightSCF
|  3> %scf
|  4>  ConvForced true
|  5>  convergence tight
|  6>  MaxIter 500
|  7> end
|  8>  
|  9> %tddft 
| 10>  nroots 1
| 11> end
| 12> 
| 13> # 	5182
| 14> * xyz 0 1
| 15> 		C   -1.220608  -0.282409   0.072396
| 16> 		O   -1.242250  -1.482057   0.189104
| 17> 		C   -0.001755   0.543132   0.047344
| 18> 		C    1.209267   0.027476   0.002146
| 19> 		H   -2.123744   0.212617  -0.083483
| 20> 		H   -0.171173   1.726841  -0.118912
| 21> 		H    1.317213  -1.194734  -0.034743
| 22> 		H    2.235339   0.500344  -0.110439
| 23> *
| 24> 
| 25>                          ****END OF INPUT****
================================================================================

                       ****************************
                       * Single Point Calculation *
                       ****************************

---------------------------------
CARTESIAN COORDINATES (ANGSTROEM)
---------------------------------
  C     -1.220608   -0.282409    0.072396
  O     -1.242250   -1.482057    0.189104
  C     -0.001755    0.543132    0.047344
  C      1.209267    0.027476    0.002146
  H     -2.123744    0.212617   -0.083483
  H     -0.171173    1.726841   -0.118912
  H      1.317213   -1.194734   -0.034743
  H      2.235339    0.500344   -0.110439

----------------------------
CARTESIAN COORDINATES (A.U.)
----------------------------
  NO LB      ZA    FRAG     MASS         X           Y           Z
   0 C     6.0000    0    12.011   -2.306615   -0.533676    0.136809
   1 O     8.0000    0    15.999   -2.347512   -2.800682    0.357355
   2 C     6.0000    0    12.011   -0.003316    1.026371    0.089467
   3 C     6.0000    0    12.011    2.285183    0.051922    0.004055
   4 H     1.0000    0     1.008   -4.013295    0.401788   -0.157760
   5 H     1.0000    0     1.008   -0.323470    3.263257   -0.224711
   6 H     1.0000    0     1.008    2.489172   -2.257720   -0.065655
   7 H     1.0000    0     1.008    4.224179    0.945513   -0.208699

--------------------------------
INTERNAL COORDINATES (ANGSTROEM)
--------------------------------
 C      0   0   0     0.000000000000     0.00000000     0.00000000
 O      1   0   0     1.205505892699     0.00000000     0.00000000
 C      1   2   0     1.472327470705   125.06387765     0.00000000
 C      3   1   2     1.317011106264   122.83811019     7.81661513
 H      1   2   3     1.041635079005   118.15459982   175.91176982
 H      3   1   2     1.207274000772   115.84459265   177.77958418
 H      4   3   1     1.227522065519   118.14685815     0.79254279
 H      4   3   1     1.135386840171   132.16958846   173.99274444

---------------------------
INTERNAL COORDINATES (A.U.)
---------------------------
 C      0   0   0     0.000000000000     0.00000000     0.00000000
 O      1   0   0     2.278075990029     0.00000000     0.00000000
 C      1   2   0     2.782295699082   125.06387765     0.00000000
 C      3   1   2     2.488790306173   122.83811019     7.81661513
 H      1   2   3     1.968405030804   118.15459982   175.91176982
 H      3   1   2     2.281417230063   115.84459265   177.77958418
 H      4   3   1     2.319680527177   118.14685815     0.79254279
 H      4   3   1     2.145570183981   132.16958846   173.99274444

---------------------
BASIS SET INFORMATION
---------------------
There are 3 groups of distinct atoms

 Group   1 Type C   : 6s3p contracted to 2s1p pattern {33/3}
 Group   2 Type O   : 6s3p contracted to 2s1p pattern {33/3}
 Group   3 Type H   : 3s contracted to 1s pattern {3}

Atom   0C    basis set group =>   1
Atom   1O    basis set group =>   2
Atom   2C    basis set group =>   1
Atom   3C    basis set group =>   1
Atom   4H    basis set group =>   3
Atom   5H    basis set group =>   3
Atom   6H    basis set group =>   3
Atom   7H    basis set group =>   3
------------------------------------------------------------------------------
                           ORCA GTO INTEGRAL CALCULATION
------------------------------------------------------------------------------
------------------------------------------------------------------------------
                   ___                                                        
                  /   \      - P O W E R E D   B Y -                         
                 /     \                                                     
                 |  |  |   _    _      __       _____    __    __             
                 |  |  |  | |  | |    /  \     |  _  \  |  |  /  |          
                  \  \/   | |  | |   /    \    | | | |  |  | /  /          
                 / \  \   | |__| |  /  /\  \   | |_| |  |  |/  /          
                |  |  |   |  __  | /  /__\  \  |    /   |      \           
                |  |  |   | |  | | |   __   |  |    \   |  |\   \          
                \     /   | |  | | |  |  |  |  | |\  \  |  | \   \       
                 \___/    |_|  |_| |__|  |__|  |_| \__\ |__|  \__/        
                                                                              
                      - O R C A' S   B I G   F R I E N D -                    
                                      &                                       
                       - I N T E G R A L  F E E D E R -                       
                                                                              
 v1 FN, 2020, v2 2021                                                         
------------------------------------------------------------------------------


Reading SHARK input file acrolien.987.SHARKINP.tmp ... ok
----------------------
SHARK INTEGRAL PACKAGE
----------------------

Number of atoms                             ...      8
Number of basis functions                   ...     24
Number of shells                            ...     16
Maximum angular momentum                    ...      1
Integral batch strategy                     ... SHARK/LIBINT Hybrid
RI-J (if used) integral strategy            ... SPLIT-RIJ (Revised 2003 algorithm where possible)
Printlevel                                  ...      1
Contraction scheme used                     ... SEGMENTED contraction
Coulomb Range Separation                    ... NOT USED
Exchange Range Separation                   ... NOT USED
Finite Nucleus Model                        ... NOT USED
Auxiliary Coulomb fitting basis             ... NOT available
Auxiliary J/K fitting basis                 ... NOT available
Auxiliary Correlation fitting basis         ... NOT available
Auxiliary 'external' fitting basis          ... NOT available
Integral threshold                          ...     2.500000e-11
Primitive cut-off                           ...     2.500000e-12
Primitive pair pre-selection threshold      ...     2.500000e-12

Calculating pre-screening integrals         ... done (  0.0 sec) Dimension = 16
Organizing shell pair data                  ... done (  0.0 sec)
Shell pair information
Total number of shell pairs                 ...       136
Shell pairs after pre-screening             ...       133
Total number of primitive shell pairs       ...      1224
Primitive shell pairs kept                  ...      1000
          la=0 lb=0:     75 shell pairs
          la=1 lb=0:     48 shell pairs
          la=1 lb=1:     10 shell pairs

Calculating one electron integrals          ... done (  0.0 sec)
Calculating Nuclear repulsion               ... done (  0.0 sec) ENN=    104.242498323411 Eh
Calculating 4-index integrals               ... 
    -> SHARK/Ints2Disk: Thresh =     2.500000e-11 TCut=    2.500000e-12 
    -> calling libint FockFlag=2 Lmax_loc=1
    ->Total LIBINT loop time =    0.000 sec
    -> L=0 0 0 0:     0.003 sec done=      2824 (=100.0%) skipped=         0 
    -> L=1 0 0 0:     0.007 sec done=      3597 (=100.0%) skipped=         0 
    -> L=1 0 1 0:     0.004 sec done=      1176 (=100.0%) skipped=         0 
    -> L=1 1 0 0:     0.003 sec done=       750 (=100.0%) skipped=         0 
    -> L=1 1 1 0:     0.004 sec done=       480 (=100.0%) skipped=         0 
    -> L=1 1 1 1:     0.001 sec done=        55 (=100.0%) skipped=         0 
    ->Total SHARK integral loop time =    0.021 sec
    -> Total Integral generation matrix time =    0.029 sec
    -> Number of small integrals   =       567
    -> Number of medium integrals  =      2067
    -> Number of large integrals   =     41161
    -> Number of MB stored         =         0 MB


SHARK setup successfully completed in   1.2 seconds

Maximum memory used throughout the entire GTOINT-calculation: 29.5 MB
-------------------------------------------------------------------------------
                                 ORCA SCF
-------------------------------------------------------------------------------

------------
SCF SETTINGS
------------
Hamiltonian:
 Ab initio Hamiltonian  Method          .... Hartree-Fock(GTOs)


General Settings:
 Integral files         IntName         .... acrolien.987
 Hartree-Fock type      HFTyp           .... RHF
 Total Charge           Charge          ....    0
 Multiplicity           Mult            ....    1
 Number of Electrons    NEL             ....   30
 Basis Dimension        Dim             ....   24
 Nuclear Repulsion      ENuc            ....    104.2424983234 Eh

Convergence Acceleration:
 DIIS                   CNVDIIS         .... on
   Start iteration      DIISMaxIt       ....    12
   Startup error        DIISStart       ....  0.200000
   # of expansion vecs  DIISMaxEq       ....     5
   Bias factor          DIISBfac        ....   1.050
   Max. coefficient     DIISMaxC        ....  10.000
 Trust-Rad. Augm. Hess. CNVTRAH         .... auto
   Auto Start mean grad. ratio tolernc. ....  1.125000
   Auto Start start iteration           ....    20
   Auto Start num. interpolation iter.  ....    10
   Max. Number of Micro iterations      ....    16
   Max. Number of Macro iterations      .... Maxiter - #DIIS iter
   Number of Davidson start vectors     ....     2
   Converg. threshold I  (grad. norm)   ....   1.000e-05
   Converg. threshold II (energy diff.) ....   1.000e-08
   Grad. Scal. Fac. for Micro threshold ....   0.100
   Minimum threshold for Micro iter.    ....   0.010
   NR start threshold (gradient norm)   ....   0.001
   Initial trust radius                 ....   0.400
   Minimum AH scaling param. (alpha)    ....   1.000
   Maximum AH scaling param. (alpha)    .... 1000.000
   Orbital update algorithm             .... Taylor
   White noise on init. David. guess    .... on
   Maximum white noise                  ....   0.010
   Quad. conv. algorithm                .... NR
 SOSCF                  CNVSOSCF        .... on
   Start iteration      SOSCFMaxIt      ....   150
   Startup grad/error   SOSCFStart      ....  0.003300
 Level Shifting         CNVShift        .... on
   Level shift para.    LevelShift      ....    0.2500
   Turn off err/grad.   ShiftErr        ....    0.0010
 Zerner damping         CNVZerner       .... off
 Static damping         CNVDamp         .... on
   Fraction old density DampFac         ....    0.7000
   Max. Damping (<1)    DampMax         ....    0.9800
   Min. Damping (>=0)   DampMin         ....    0.0000
   Turn off err/grad.   DampErr         ....    0.1000
 Fernandez-Rico         CNVRico         .... off

SCF Procedure:
 Maximum # iterations   MaxIter         ....   500
 SCF integral mode      SCFMode         .... Conventional
 Integral Threshold     Thresh          ....  2.500e-11 Eh
 Primitive CutOff       TCut            ....  2.500e-12 Eh
 Integral Buffer length BufferLength    .... 1048576
 Integral index format  IndFormat       ....     0
 Integral value format  ValFormat       ....     0
 Integral Storage       Thresh          ....  2.500e-11 Eh

Convergence Tolerance:
 Convergence Check Mode ConvCheckMode   .... Total+1el-Energy
 Convergence forced     ConvForced      .... 1
 Energy Change          TolE            ....  1.000e-08 Eh
 1-El. energy change                    ....  1.000e-05 Eh
 Orbital Gradient       TolG            ....  1.000e-05
 Orbital Rotation angle TolX            ....  1.000e-05
 DIIS Error             TolErr          ....  5.000e-07


Diagonalization of the overlap matrix:
Smallest eigenvalue                        ... 1.798e-01
Time for diagonalization                   ...    0.000 sec
Threshold for overlap eigenvalues          ... 1.000e-08
Number of eigenvalues below threshold      ... 0
Time for construction of square roots      ...    0.327 sec
Total time needed                          ...    0.327 sec

--------------------------------
INITIAL GUESS: MINIMAL BASIS EHT
--------------------------------
The minimal basis has 24 functions
EHT matrix was diagonalized
Basis set overlap was calculated now projecting the orbitals
Using GuessMode=FMatrix for the initial guess
C*T matrix was formed
Effective Fockian was calculated
Effective Fockian was diagonalized
Initial density was built
                      ------------------
                      INITIAL GUESS DONE
                      ------------------

 InCore treatment chosen:
   Memory dedicated               ...    1024 MB
   Memory needed                  ...      0 MB
   Number of tiny    integrals    ...     567
   Number of small   integrals    ...    2067
   Number of regular integrals    ...   41161

--------------
SCF ITERATIONS
--------------
ITER       Energy         Delta-E        Max-DP      RMS-DP      [F,P]     Damp
  0   -189.0212001831   0.000000000000 0.15565805  0.01499279  0.3411622 0.7000
  1   -189.1416000038  -0.120399820689 0.13026714  0.01199934  0.2269798 0.7000
                               ***Turning on DIIS***
  2   -189.2186663333  -0.077066329511 0.08176829  0.00771578  0.1310552 0.7000
  3   -189.2407669482  -0.022100614844 0.11958341  0.01468509  0.0945779 0.0000
  4   -189.3869092435  -0.146142295295 0.01636839  0.00185457  0.0082678 0.0000
  5   -189.3874264942  -0.000517250697 0.00797349  0.00078806  0.0049870 0.0000
                      *** Initiating the SOSCF procedure ***
                           *** Shutting down DIIS ***
                      *** Re-Reading the Fockian *** 
                      *** Removing any level shift *** 
ITER      Energy       Delta-E        Grad      Rot      Max-DP    RMS-DP
  6   -189.38766122  -0.0002347240  0.001633  0.001633  0.003108  0.000375
  7   -189.38875647  -0.0010952481  0.000542  0.000795  0.001162  0.000118
  8   -189.38875910  -0.0000026355  0.000193  0.000589  0.001099  0.000117
  9   -189.38875993  -0.0000008255  0.000060  0.000109  0.000237  0.000022
 10   -189.38875999  -0.0000000582  0.000039  0.000120  0.000247  0.000018
 11   -189.38876002  -0.0000000296  0.000018  0.000089  0.000170  0.000012
                 **** Energy Check signals convergence ****
              ***Rediagonalizing the Fockian in SOSCF/NRSCF***

               *****************************************************
               *                     SUCCESS                       *
               *           SCF CONVERGED AFTER  12 CYCLES          *
               *****************************************************


----------------
TOTAL SCF ENERGY
----------------

Total Energy       :         -189.38876002 Eh           -5153.53016 eV

Components:
Nuclear Repulsion  :          104.24249832 Eh            2836.58259 eV
Electronic Energy  :         -293.63125835 Eh           -7990.11275 eV
One Electron Energy:         -463.58367990 Eh          -12614.75325 eV
Two Electron Energy:          169.95242156 Eh            4624.64050 eV

Virial components:
Potential Energy   :         -378.43518039 Eh          -10297.74479 eV
Kinetic Energy     :          189.04642037 Eh            5144.21462 eV
Virial Ratio       :            2.00181088


---------------
SCF CONVERGENCE
---------------

  Last Energy change         ...   -7.4058e-09  Tolerance :   1.0000e-08
  Last MAX-Density change    ...    3.2595e-05  Tolerance :   1.0000e-07
  Last RMS-Density change    ...    3.2198e-06  Tolerance :   5.0000e-09
  Last Orbital Gradient      ...    9.2994e-06  Tolerance :   1.0000e-05
  Last Orbital Rotation      ...    1.8825e-05  Tolerance :   1.0000e-05

             **** THE GBW FILE WAS UPDATED (acrolien.987.gbw) ****
             **** DENSITY acrolien.987.scfp WAS UPDATED ****
             **** ENERGY FILE WAS UPDATED (acrolien.987.en.tmp) ****
             **** THE GBW FILE WAS UPDATED (acrolien.987.gbw) ****
             **** DENSITY acrolien.987.scfp WAS UPDATED ****
----------------
ORBITAL ENERGIES
----------------

  NO   OCC          E(Eh)            E(eV) 
   0   2.0000     -20.363276      -554.1129 
   1   2.0000     -11.296997      -307.4069 
   2   2.0000     -11.185452      -304.3716 
   3   2.0000     -11.181862      -304.2739 
   4   2.0000      -1.404747       -38.2251 
   5   2.0000      -1.066561       -29.0226 
   6   2.0000      -0.887243       -24.1431 
   7   2.0000      -0.743250       -20.2249 
   8   2.0000      -0.679337       -18.4857 
   9   2.0000      -0.612819       -16.6757 
  10   2.0000      -0.584013       -15.8918 
  11   2.0000      -0.543117       -14.7790 
  12   2.0000      -0.484847       -13.1933 
  13   2.0000      -0.415342       -11.3020 
  14   2.0000      -0.390549       -10.6274 
  15   0.0000       0.138197         3.7605 
  16   0.0000       0.319676         8.6988 
  17   0.0000       0.467435        12.7195 
  18   0.0000       0.573344        15.6015 
  19   0.0000       0.579324        15.7642 
  20   0.0000       0.754125        20.5208 
  21   0.0000       0.832336        22.6490 
  22   0.0000       0.861827        23.4515 
  23   0.0000       1.054719        28.7004 

                    ********************************
                    * MULLIKEN POPULATION ANALYSIS *
                    ********************************

-----------------------
MULLIKEN ATOMIC CHARGES
-----------------------
   0 C :    0.153349
   1 O :   -0.352746
   2 C :   -0.179657
   3 C :   -0.196992
   4 H :    0.136894
   5 H :    0.140984
   6 H :    0.152024
   7 H :    0.146143
Sum of atomic charges:   -0.0000000

--------------------------------
MULLIKEN REDUCED ORBITAL CHARGES
--------------------------------
  0 C s       :     3.047833  s :     3.047833
      pz      :     0.877413  p :     2.798817
      px      :     1.070586
      py      :     0.850818
  1 O s       :     3.832384  s :     3.832384
      pz      :     1.182903  p :     4.520362
      px      :     1.916819
      py      :     1.420640
  2 C s       :     3.091332  s :     3.091332
      pz      :     1.057568  p :     3.088325
      px      :     0.979373
      py      :     1.051384
  3 C s       :     3.159387  s :     3.159387
      pz      :     0.894968  p :     3.037605
      px      :     1.053657
      py      :     1.088979
  4 H s       :     0.863106  s :     0.863106
  5 H s       :     0.859016  s :     0.859016
  6 H s       :     0.847976  s :     0.847976
  7 H s       :     0.853857  s :     0.853857


                     *******************************
                     * LOEWDIN POPULATION ANALYSIS *
                     *******************************

----------------------
LOEWDIN ATOMIC CHARGES
----------------------
   0 C :    0.141904
   1 O :   -0.257622
   2 C :   -0.147863
   3 C :   -0.110883
   4 H :    0.067879
   5 H :    0.098744
   6 H :    0.109268
   7 H :    0.098573

-------------------------------
LOEWDIN REDUCED ORBITAL CHARGES
-------------------------------
  0 C s       :     2.966107  s :     2.966107
      pz      :     0.880620  p :     2.891989
      px      :     1.077450
      py      :     0.933919
  1 O s       :     3.698331  s :     3.698331
      pz      :     1.181080  p :     4.559292
      px      :     1.919418
      py      :     1.458794
  2 C s       :     2.987562  s :     2.987562
      pz      :     1.052565  p :     3.160300
      px      :     1.046036
      py      :     1.061699
  3 C s       :     3.037916  s :     3.037916
      pz      :     0.899026  p :     3.072967
      px      :     1.081628
      py      :     1.092313
  4 H s       :     0.932121  s :     0.932121
  5 H s       :     0.901256  s :     0.901256
  6 H s       :     0.890732  s :     0.890732
  7 H s       :     0.901427  s :     0.901427


                      *****************************
                      * MAYER POPULATION ANALYSIS *
                      *****************************

  NA   - Mulliken gross atomic population
  ZA   - Total nuclear charge
  QA   - Mulliken gross atomic charge
  VA   - Mayer's total valence
  BVA  - Mayer's bonded valence
  FA   - Mayer's free valence

  ATOM       NA         ZA         QA         VA         BVA        FA
  0 C      5.8467     6.0000     0.1533     3.8819     3.8819    -0.0000
  1 O      8.3527     8.0000    -0.3527     2.0539     2.0539     0.0000
  2 C      6.1797     6.0000    -0.1797     3.9721     3.9721    -0.0000
  3 C      6.1970     6.0000    -0.1970     3.9379     3.9379    -0.0000
  4 H      0.8631     1.0000     0.1369     0.9813     0.9813    -0.0000
  5 H      0.8590     1.0000     0.1410     0.9801     0.9801    -0.0000
  6 H      0.8480     1.0000     0.1520     0.9769     0.9769    -0.0000
  7 H      0.8539     1.0000     0.1461     0.9786     0.9786     0.0000

  Mayer bond orders larger than 0.100000
B(  0-C ,  1-O ) :   1.9014 B(  0-C ,  2-C ) :   1.0262 B(  0-C ,  4-H ) :   0.9326 
B(  2-C ,  3-C ) :   1.9495 B(  2-C ,  5-H ) :   0.9506 B(  3-C ,  6-H ) :   0.9507 
B(  3-C ,  7-H ) :   0.9619 

-------
TIMINGS
-------

Total SCF time: 0 days 0 hours 0 min 3 sec 

Total time                  ....       3.292 sec
Sum of individual times     ....       0.489 sec  ( 14.8%)

Fock matrix formation       ....       0.091 sec  (  2.8%)
Diagonalization             ....       0.001 sec  (  0.0%)
Density matrix formation    ....       0.000 sec  (  0.0%)
Population analysis         ....       0.294 sec  (  8.9%)
Initial guess               ....       0.002 sec  (  0.1%)
Orbital Transformation      ....       0.000 sec  (  0.0%)
Orbital Orthonormalization  ....       0.000 sec  (  0.0%)
DIIS solution               ....       0.002 sec  (  0.1%)
SOSCF solution              ....       0.099 sec  (  3.0%)

Maximum memory used throughout the entire SCF-calculation: 225.0 MB
------------------------------------------------------------------------------
                         ORCA CIS CALCULATION
------------------------------------------------------------------------------

Input orbitals are from        ... acrolien.987.gbw
CI-vector output               ... acrolien.987.cis
Tamm-Dancoff approximation     ... operative
CIS-Integral strategy          ... AO-integrals
Integral handling              ... AO integral Conventional
Reference state                ... RHF
Generation of triplets         ... off
Follow IRoot                   ... off
Number of operators            ... 1
Orbital ranges used for CIS calculation:
 Operator 0:  Orbitals   4... 14  to  15... 23
XAS localization array:
 Operator 0:  Orbitals  -1... -1

------------------------
DAVIDSON-DIAGONALIZATION
------------------------

Dimension of the eigenvalue problem            ...     99
Number of roots to be determined               ...      1
Maximum size of the expansion space            ...     10
Maximum number of iterations                   ...    100
Convergence tolerance for the residual         ...    2.500e-07
Convergence tolerance for the energies         ...    2.500e-07
Orthogonality tolerance                        ...    1.000e-14
Level Shift                                    ...    0.000e+00
Constructing the preconditioner                ... o.k.
Building the initial guess                     ... o.k.
Number of trial vectors determined             ...     10


                       ****Iteration    0****

   Memory handling for direct AO based CIS:
   Memory per vector needed      ...     1 MB
   Memory needed                 ...     0 MB
   Memory available              ...   512 MB
   Number of vectors per batch   ...   512
   Number of batches             ...     1
   Time for densities:            0.000
   SHARK[4]
   Time for Sigma-Completion:     0.000
   Size of expansion space: 3
   Lowest Energy          :     0.206167650381
   Maximum Energy change  :     0.206167650381 (vector 0)
   Maximum residual norm  :     0.015654785736

                       ****Iteration    1****
   Time for densities:            0.000
   SHARK[4]
   Time for Sigma-Completion:     0.000
   Size of expansion space: 4
   Lowest Energy          :     0.152839326182
   Maximum Energy change  :     0.053328324199 (vector 0)
   Maximum residual norm  :     0.001069837991

                       ****Iteration    2****
   Time for densities:            0.000
   SHARK[4]
   Time for Sigma-Completion:     0.000
   Size of expansion space: 5
   Lowest Energy          :     0.150120150151
   Maximum Energy change  :     0.002719176031 (vector 0)
   Maximum residual norm  :     0.000061221342

                       ****Iteration    3****
   Time for densities:            0.000
   SHARK[4]
   Time for Sigma-Completion:     0.000
   Size of expansion space: 6
   Lowest Energy          :     0.150012980454
   Maximum Energy change  :     0.000107169697 (vector 0)
   Maximum residual norm  :     0.000004106492

                       ****Iteration    4****
   Time for densities:            0.000
   SHARK[4]
   Time for Sigma-Completion:     0.000
   Size of expansion space: 7
   Lowest Energy          :     0.150005857662
   Maximum Energy change  :     0.000007122792 (vector 0)
   Maximum residual norm  :     0.000000236591

      *** CONVERGENCE OF RESIDUAL NORM REACHED ***

Storing the converged CI vectors               ... acrolien.987.cis1

                 *** DAVIDSON DONE ***

Total time for solving the CIS problem:     0.610sec

-----------------------------
CIS-EXCITED STATES (SINGLETS)
-----------------------------

the weight of the individual excitations are printed if larger than 1.0e-02

STATE  1:  E=   0.150006 au      4.082 eV    32922.5 cm**-1 <S**2> =   0.000000
    12a ->  15a  :     0.033764 (c=  0.18374992)
    12a ->  16a  :     0.010675 (c= -0.10331941)
    13a ->  15a  :     0.777110 (c=  0.88153840)
    13a ->  16a  :     0.137000 (c= -0.37013490)


----------------------
CIS-EXCITATION SPECTRA
----------------------

Center of mass = ( -0.6325, -0.6403,  0.1395)
Calculating the Dipole integrals                  ... done
Transforming integrals                            ... done
Calculating the Linear Momentum integrals         ... done
Transforming integrals                            ... done
Calculating angular momentum integrals            ... done
Transforming integrals                            ... done

-----------------------------------------------------------------------------
         ABSORPTION SPECTRUM VIA TRANSITION ELECTRIC DIPOLE MOMENTS
-----------------------------------------------------------------------------
State   Energy    Wavelength  fosc         T2        TX        TY        TZ  
        (cm-1)      (nm)                 (au**2)    (au)      (au)      (au) 
-----------------------------------------------------------------------------
   1   32922.5    303.7   0.000019647   0.00020  -0.01126  -0.00245   0.00798

-----------------------------------------------------------------------------
         ABSORPTION SPECTRUM VIA TRANSITION VELOCITY DIPOLE MOMENTS
-----------------------------------------------------------------------------
State   Energy    Wavelength   fosc        P2         PX        PY        PZ  
        (cm-1)      (nm)                 (au**2)     (au)      (au)      (au) 
-----------------------------------------------------------------------------
   1   32922.5    303.7   0.000717973   0.00016   0.00029  -0.00214  -0.01253

-------------------------------------------------------------------
                             CD SPECTRUM
-------------------------------------------------------------------
State  Energy     Wavelength     R         MX        MY        MZ   
       (cm-1)       (nm)     (1e40*cgs)   (au)      (au)      (au)  
-------------------------------------------------------------------
   1   32922.5    303.7     -0.98535   0.03781   0.49811  -0.05591

-------------------------------------------------------------------
         CD SPECTRUM VIA TRANSITION VELOCITY DIPOLE MOMENTS        
-------------------------------------------------------------------
State  Energy     Wavelength     R         MX        MY        MZ   
       (cm-1)       (nm)     (1e40*cgs)   (au)      (au)      (au)  
-------------------------------------------------------------------
   1   32922.5    303.7     -1.11699   0.03781   0.49811  -0.05591

Total run time:        0.896 sec

           *** ORCA-CIS/TD-DFT FINISHED WITHOUT ERROR ***

Maximum memory used throughout the entire CIS-calculation: 51.7 MB

-----------------------
CIS/TD-DFT TOTAL ENERGY
-----------------------

    E(SCF)  =   -189.388760023 Eh
    DE(CIS) =      0.150005858 Eh (Root  1)
    ----------------------------- ---------
    E(tot)  =   -189.238754165 Eh



-------------------------------------------------------------------------------
                          DFT DISPERSION CORRECTION                            
                                                                               
                              DFTD3 V3.1  Rev 1                                
                          USING Becke-Johnson damping                          
-------------------------------------------------------------------------------
Hartree-Fock is recognized
Active option DFTDOPT                   ...         4   

molecular C6(AA) [au] = 662.801649 


            DFT-D V3
 parameters
 using HF/MINIX parameters
 s6 scaling factor         :     1.0000 
 a1 scaling factor         :     0.4171 
 s8 scaling factor         :     0.8777 
 a2 scaling factor         :     2.9149 
 ad hoc parameters k1-k3   :    16.0000     1.3333    -4.0000 

 Edisp/kcal,au: -15.912105726569  -0.025357551857 
 E6   /kcal   :  -8.800561651 
 E8   /kcal   :  -7.111544075 
 % E8         :  44.692664803 

-------------------------   ----------------
Dispersion correction           -0.025357552
-------------------------   ----------------

------------------   -----------------
gCP+bas correction        -0.050155500
------------------   -----------------
----------------------------   ----------------
Total correction to HF/MINIX       -0.075513052
----------------------------   ----------------


-------------------------   --------------------
FINAL SINGLE POINT ENERGY      -189.314267216780
-------------------------   --------------------


                            ***************************************
                            *     ORCA property calculations      *
                            ***************************************

                                    ---------------------
                                    Active property flags
                                    ---------------------
   (+) Dipole Moment


------------------------------------------------------------------------------
                       ORCA ELECTRIC PROPERTIES CALCULATION
------------------------------------------------------------------------------

Dipole Moment Calculation                       ... on
Quadrupole Moment Calculation                   ... off
Polarizability Calculation                      ... off
GBWName                                         ... acrolien.987.gbw
Electron density                                ... acrolien.987.scfp
The origin for moment calculation is the CENTER OF MASS  = (-0.632482, -0.640251  0.139515)

-------------
DIPOLE MOMENT
-------------
                                X             Y             Z
Electronic contribution:     -2.00345      -1.54614       0.41683
Nuclear contribution   :      2.42247       2.42263      -0.60144
                        -----------------------------------------
Total Dipole Moment    :      0.41903       0.87648      -0.18461
                        -----------------------------------------
Magnitude (a.u.)       :      0.98888
Magnitude (Debye)      :      2.51354



--------------------
Rotational spectrum 
--------------------
 
Rotational constants in cm-1:     0.766619     0.206414     0.162875 
Rotational constants in MHz : 22982.667483  6188.130462  4882.857570 

 Dipole components along the rotational axes: 
x,y,z [a.u.] :    -0.823610    -0.535309     0.114018 
x,y,z [Debye]:    -2.093451    -1.360648     0.289810 

 

Timings for individual modules:

Sum of individual times         ...        6.452 sec (=   0.108 min)
GTO integral calculation        ...        1.511 sec (=   0.025 min)  23.4 %
SCF iterations                  ...        3.475 sec (=   0.058 min)  53.9 %
CIS module                      ...        1.466 sec (=   0.024 min)  22.7 %
                             ****ORCA TERMINATED NORMALLY****
TOTAL RUN TIME: 0 days 0 hours 0 minutes 10 seconds 146 msec
