
                                 *****************
                                 * O   R   C   A *
                                 *****************

                                            #,                                       
                                            ###                                      
                                            ####                                     
                                            #####                                    
                                            ######                                   
                                           ########,                                 
                                     ,,################,,,,,                         
                               ,,#################################,,                 
                          ,,##########################################,,             
                       ,#########################################, ''#####,          
                    ,#############################################,,   '####,        
                  ,##################################################,,,,####,       
                ,###########''''           ''''###############################       
              ,#####''   ,,,,##########,,,,          '''####'''          '####       
            ,##' ,,,,###########################,,,                        '##       
           ' ,,###''''                  '''############,,,                           
         ,,##''                                '''############,,,,        ,,,,,,###''
      ,#''                                            '''#######################'''  
     '                                                          ''''####''''         
             ,#######,   #######,   ,#######,      ##                                
            ,#'     '#,  ##    ##  ,#'     '#,    #''#        ######   ,####,        
            ##       ##  ##   ,#'  ##            #'  '#       #        #'  '#        
            ##       ##  #######   ##           ,######,      #####,   #    #        
            '#,     ,#'  ##    ##  '#,     ,#' ,#      #,         ##   #,  ,#        
             '#######'   ##     ##  '#######'  #'      '#     #####' # '####'        



                  #######################################################
                  #                        -***-                        #
                  #          Department of theory and spectroscopy      #
                  #    Directorship and core code : Frank Neese         #
                  #        Max Planck Institute fuer Kohlenforschung    #
                  #                Kaiser Wilhelm Platz 1               #
                  #                 D-45470 Muelheim/Ruhr               #
                  #                      Germany                        #
                  #                                                     #
                  #                  All rights reserved                #
                  #                        -***-                        #
                  #######################################################


                         Program Version 5.0.3 -  RELEASE  -


 With contributions from (in alphabetic order):
   Daniel Aravena         : Magnetic Suceptibility
   Michael Atanasov       : Ab Initio Ligand Field Theory (pilot matlab implementation)
   Alexander A. Auer      : GIAO ZORA, VPT2 properties, NMR spectrum
   Ute Becker             : Parallelization
   Giovanni Bistoni       : ED, misc. LED, open-shell LED, HFLD
   Martin Brehm           : Molecular dynamics
   Dmytro Bykov           : SCF Hessian
   Vijay G. Chilkuri      : MRCI spin determinant printing, contributions to CSF-ICE
   Dipayan Datta          : RHF DLPNO-CCSD density
   Achintya Kumar Dutta   : EOM-CC, STEOM-CC
   Dmitry Ganyushin       : Spin-Orbit,Spin-Spin,Magnetic field MRCI
   Miquel Garcia          : C-PCM and meta-GGA Hessian, CC/C-PCM, Gaussian charge scheme
   Yang Guo               : DLPNO-NEVPT2, F12-NEVPT2, CIM, IAO-localization
   Andreas Hansen         : Spin unrestricted coupled pair/coupled cluster methods
   Benjamin Helmich-Paris : MC-RPA, TRAH-SCF, COSX integrals
   Lee Huntington         : MR-EOM, pCC
   Robert Izsak           : Overlap fitted RIJCOSX, COSX-SCS-MP3, EOM
   Marcus Kettner         : VPT2
   Christian Kollmar      : KDIIS, OOCD, Brueckner-CCSD(T), CCSD density, CASPT2, CASPT2-K
   Simone Kossmann        : Meta GGA functionals, TD-DFT gradient, OOMP2, MP2 Hessian
   Martin Krupicka        : Initial AUTO-CI
   Lucas Lang             : DCDCAS
   Marvin Lechner         : AUTO-CI (C++ implementation), FIC-MRCC
   Dagmar Lenk            : GEPOL surface, SMD
   Dimitrios Liakos       : Extrapolation schemes; Compound Job, initial MDCI parallelization
   Dimitrios Manganas     : Further ROCIS development; embedding schemes
   Dimitrios Pantazis     : SARC Basis sets
   Anastasios Papadopoulos: AUTO-CI, single reference methods and gradients
   Taras Petrenko         : DFT Hessian,TD-DFT gradient, ASA, ECA, R-Raman, ABS, FL, XAS/XES, NRVS
   Peter Pinski           : DLPNO-MP2, DLPNO-MP2 Gradient
   Christoph Reimann      : Effective Core Potentials
   Marius Retegan         : Local ZFS, SOC
   Christoph Riplinger    : Optimizer, TS searches, QM/MM, DLPNO-CCSD(T), (RO)-DLPNO pert. Triples
   Tobias Risthaus        : Range-separated hybrids, TD-DFT gradient, RPA, STAB
   Michael Roemelt        : Original ROCIS implementation
   Masaaki Saitow         : Open-shell DLPNO-CCSD energy and density
   Barbara Sandhoefer     : DKH picture change effects
   Avijit Sen             : IP-ROCIS
   Kantharuban Sivalingam : CASSCF convergence, NEVPT2, FIC-MRCI
   Bernardo de Souza      : ESD, SOC TD-DFT
   Georgi Stoychev        : AutoAux, RI-MP2 NMR, DLPNO-MP2 response
   Willem Van den Heuvel  : Paramagnetic NMR
   Boris Wezisla          : Elementary symmetry handling
   Frank Wennmohs         : Technical directorship


 We gratefully acknowledge several colleagues who have allowed us to
 interface, adapt or use parts of their codes:
   Stefan Grimme, W. Hujo, H. Kruse, P. Pracht,  : VdW corrections, initial TS optimization,
                  C. Bannwarth, S. Ehlert          DFT functionals, gCP, sTDA/sTD-DF
   Ed Valeev, F. Pavosevic, A. Kumar             : LibInt (2-el integral package), F12 methods
   Garnet Chan, S. Sharma, J. Yang, R. Olivares  : DMRG
   Ulf Ekstrom                                   : XCFun DFT Library
   Mihaly Kallay                                 : mrcc  (arbitrary order and MRCC methods)
   Jiri Pittner, Ondrej Demel                    : Mk-CCSD
   Frank Weinhold                                : gennbo (NPA and NBO analysis)
   Christopher J. Cramer and Donald G. Truhlar   : smd solvation model
   Lars Goerigk                                  : TD-DFT with DH, B97 family of functionals
   V. Asgeirsson, H. Jonsson                     : NEB implementation
   FAccTs GmbH                                   : IRC, NEB, NEB-TS, DLPNO-Multilevel, CI-OPT
                                                   MM, QMMM, 2- and 3-layer-ONIOM, Crystal-QMMM,
                                                   LR-CPCM, SF, NACMEs, symmetry and pop. for TD-DFT,
                                                   nearIR, NL-DFT gradient (VV10), updates on ESD,
                                                   ML-optimized integration grids
   S Lehtola, MJT Oliveira, MAL Marques          : LibXC Library
   Liviu Ungur et al                             : ANISO software


 Your calculation uses the libint2 library for the computation of 2-el integrals
 For citations please refer to: http://libint.valeyev.net

 Your ORCA version has been built with support for libXC version: 5.1.0
 For citations please refer to: https://tddft.org/programs/libxc/

 This ORCA versions uses:
   CBLAS   interface :  Fast vector & matrix operations
   LAPACKE interface :  Fast linear algebra routines
   SCALAPACK package :  Parallel linear algebra routines
   Shared memory     :  Shared parallel matrices
   BLAS/LAPACK       :  OpenBLAS 0.3.15  USE64BITINT DYNAMIC_ARCH NO_AFFINITY Haswell SINGLE_THREADED
        Core in use  :  Haswell
   Copyright (c) 2011-2014, The OpenBLAS Project


Your calculation utilizes the geometrical counterpoise correction gCP
Please cite in your paper:
H.Kruse, S. Grimme J.Chem.Phys., 136, (2012), 154101 
   

Your calculation utilizes the atom-pairwise dispersion correction
with the Becke-Johnson damping scheme (D3BJ)
Cite in your paper:
S.Grimme, S.Ehrlich, L.Goerigk, J Comput Chem, (2011), 32, 1456–1465 
S.Grimme, J.Antony, S.Ehrlich and H.Krieg, J.Chem.Phys., 132, (2010), 154104 
   

================================================================================

----- Orbital basis set information -----
Your calculation utilizes the basis: MINIX,
   a combination of small basis sets by S. Grimme (see manual for definitions).

================================================================================
                                        WARNINGS
                       Please study these warnings very carefully!
================================================================================

INFO   : Checking CIS options ...

INFO   : the flag for use of the SHARK integral package has been found!

================================================================================
                                       INPUT FILE
================================================================================
NAME = acrolien.790.com
|  1> ! HF-3c
|  2> !TightSCF
|  3> %scf
|  4>  ConvForced true
|  5>  convergence tight
|  6>  MaxIter 500
|  7> end
|  8>  
|  9> %tddft 
| 10>  nroots 1
| 11> end
| 12> 
| 13> # 	27104
| 14> * xyz 0 1
| 15> 		C   -0.602641  -0.412840   0.030260
| 16> 		O   -0.568596  -1.673164  -0.020672
| 17> 		C    0.611573   0.426051  -0.039689
| 18> 		C    1.853139  -0.111825   0.024006
| 19> 		H   -1.438366   0.224750   0.168055
| 20> 		H    0.515873   1.586379  -0.062738
| 21> 		H    1.927636  -1.175641   0.059087
| 22> 		H    2.790929   0.364475  -0.017406
| 23> *
| 24> 
| 25>                          ****END OF INPUT****
================================================================================

                       ****************************
                       * Single Point Calculation *
                       ****************************

---------------------------------
CARTESIAN COORDINATES (ANGSTROEM)
---------------------------------
  C     -0.602641   -0.412840    0.030260
  O     -0.568596   -1.673164   -0.020672
  C      0.611573    0.426051   -0.039689
  C      1.853139   -0.111825    0.024006
  H     -1.438366    0.224750    0.168055
  H      0.515873    1.586379   -0.062738
  H      1.927636   -1.175641    0.059087
  H      2.790929    0.364475   -0.017406

----------------------------
CARTESIAN COORDINATES (A.U.)
----------------------------
  NO LB      ZA    FRAG     MASS         X           Y           Z
   0 C     6.0000    0    12.011   -1.138826   -0.780155    0.057183
   1 O     8.0000    0    15.999   -1.074491   -3.161822   -0.039064
   2 C     6.0000    0    12.011    1.155705    0.805120   -0.075001
   3 C     6.0000    0    12.011    3.501925   -0.211319    0.045365
   4 H     1.0000    0     1.008   -2.718118    0.424716    0.317578
   5 H     1.0000    0     1.008    0.974859    2.997822   -0.118558
   6 H     1.0000    0     1.008    3.642704   -2.221640    0.111658
   7 H     1.0000    0     1.008    5.274091    0.688758   -0.032893

--------------------------------
INTERNAL COORDINATES (ANGSTROEM)
--------------------------------
 C      0   0   0     0.000000000000     0.00000000     0.00000000
 O      1   0   0     1.261812076192     0.00000000     0.00000000
 C      1   2   0     1.477479817215   122.89021848     0.00000000
 C      3   1   2     1.354567745355   121.70677135   350.62807118
 H      1   2   3     1.060162603448   128.84487164   182.99367666
 H      3   1   2     1.164495948462   119.94391495   175.73600883
 H      4   3   1     1.066998107508   117.48004471     4.14121126
 H      4   3   1     1.052628485195   129.42420656   179.71848128

---------------------------
INTERNAL COORDINATES (A.U.)
---------------------------
 C      0   0   0     0.000000000000     0.00000000     0.00000000
 O      1   0   0     2.384479256478     0.00000000     0.00000000
 C      1   2   0     2.792032222933   122.89021848     0.00000000
 C      3   1   2     2.559762068565   121.70677135   350.62807118
 H      1   2   3     2.003416977942   128.84487164   182.99367666
 H      3   1   2     2.200578426655   119.94391495   175.73600883
 H      4   3   1     2.016334208603   117.48004471     4.14121126
 H      4   3   1     1.989179557783   129.42420656   179.71848128

---------------------
BASIS SET INFORMATION
---------------------
There are 3 groups of distinct atoms

 Group   1 Type C   : 6s3p contracted to 2s1p pattern {33/3}
 Group   2 Type O   : 6s3p contracted to 2s1p pattern {33/3}
 Group   3 Type H   : 3s contracted to 1s pattern {3}

Atom   0C    basis set group =>   1
Atom   1O    basis set group =>   2
Atom   2C    basis set group =>   1
Atom   3C    basis set group =>   1
Atom   4H    basis set group =>   3
Atom   5H    basis set group =>   3
Atom   6H    basis set group =>   3
Atom   7H    basis set group =>   3
------------------------------------------------------------------------------
                           ORCA GTO INTEGRAL CALCULATION
------------------------------------------------------------------------------
------------------------------------------------------------------------------
                   ___                                                        
                  /   \      - P O W E R E D   B Y -                         
                 /     \                                                     
                 |  |  |   _    _      __       _____    __    __             
                 |  |  |  | |  | |    /  \     |  _  \  |  |  /  |          
                  \  \/   | |  | |   /    \    | | | |  |  | /  /          
                 / \  \   | |__| |  /  /\  \   | |_| |  |  |/  /          
                |  |  |   |  __  | /  /__\  \  |    /   |      \           
                |  |  |   | |  | | |   __   |  |    \   |  |\   \          
                \     /   | |  | | |  |  |  |  | |\  \  |  | \   \       
                 \___/    |_|  |_| |__|  |__|  |_| \__\ |__|  \__/        
                                                                              
                      - O R C A' S   B I G   F R I E N D -                    
                                      &                                       
                       - I N T E G R A L  F E E D E R -                       
                                                                              
 v1 FN, 2020, v2 2021                                                         
------------------------------------------------------------------------------


Reading SHARK input file acrolien.790.SHARKINP.tmp ... ok
----------------------
SHARK INTEGRAL PACKAGE
----------------------

Number of atoms                             ...      8
Number of basis functions                   ...     24
Number of shells                            ...     16
Maximum angular momentum                    ...      1
Integral batch strategy                     ... SHARK/LIBINT Hybrid
RI-J (if used) integral strategy            ... SPLIT-RIJ (Revised 2003 algorithm where possible)
Printlevel                                  ...      1
Contraction scheme used                     ... SEGMENTED contraction
Coulomb Range Separation                    ... NOT USED
Exchange Range Separation                   ... NOT USED
Finite Nucleus Model                        ... NOT USED
Auxiliary Coulomb fitting basis             ... NOT available
Auxiliary J/K fitting basis                 ... NOT available
Auxiliary Correlation fitting basis         ... NOT available
Auxiliary 'external' fitting basis          ... NOT available
Integral threshold                          ...     2.500000e-11
Primitive cut-off                           ...     2.500000e-12
Primitive pair pre-selection threshold      ...     2.500000e-12

Calculating pre-screening integrals         ... done (  0.0 sec) Dimension = 16
Organizing shell pair data                  ... done (  0.1 sec)
Shell pair information
Total number of shell pairs                 ...       136
Shell pairs after pre-screening             ...       133
Total number of primitive shell pairs       ...      1224
Primitive shell pairs kept                  ...       998
          la=0 lb=0:     75 shell pairs
          la=1 lb=0:     48 shell pairs
          la=1 lb=1:     10 shell pairs

Calculating one electron integrals          ... done (  0.0 sec)
Calculating Nuclear repulsion               ... done (  0.1 sec) ENN=    103.464178881365 Eh
Calculating 4-index integrals               ... 
    -> SHARK/Ints2Disk: Thresh =     2.500000e-11 TCut=    2.500000e-12 
    -> calling libint FockFlag=2 Lmax_loc=1
    ->Total LIBINT loop time =    0.000 sec
    -> L=0 0 0 0:     0.003 sec done=      2821 (=100.0%) skipped=         0 
    -> L=1 0 0 0:     0.007 sec done=      3594 (=100.0%) skipped=         0 
    -> L=1 0 1 0:     0.004 sec done=      1176 (=100.0%) skipped=         0 
    -> L=1 1 0 0:     0.003 sec done=       750 (=100.0%) skipped=         0 
    -> L=1 1 1 0:     0.004 sec done=       480 (=100.0%) skipped=         0 
    -> L=1 1 1 1:     0.001 sec done=        55 (=100.0%) skipped=         0 
    ->Total SHARK integral loop time =    0.024 sec
    -> Total Integral generation matrix time =    0.042 sec
    -> Number of small integrals   =       701
    -> Number of medium integrals  =      2527
    -> Number of large integrals   =     40490
    -> Number of MB stored         =         0 MB


SHARK setup successfully completed in   1.1 seconds

Maximum memory used throughout the entire GTOINT-calculation: 29.5 MB
-------------------------------------------------------------------------------
                                 ORCA SCF
-------------------------------------------------------------------------------

------------
SCF SETTINGS
------------
Hamiltonian:
 Ab initio Hamiltonian  Method          .... Hartree-Fock(GTOs)


General Settings:
 Integral files         IntName         .... acrolien.790
 Hartree-Fock type      HFTyp           .... RHF
 Total Charge           Charge          ....    0
 Multiplicity           Mult            ....    1
 Number of Electrons    NEL             ....   30
 Basis Dimension        Dim             ....   24
 Nuclear Repulsion      ENuc            ....    103.4641788814 Eh

Convergence Acceleration:
 DIIS                   CNVDIIS         .... on
   Start iteration      DIISMaxIt       ....    12
   Startup error        DIISStart       ....  0.200000
   # of expansion vecs  DIISMaxEq       ....     5
   Bias factor          DIISBfac        ....   1.050
   Max. coefficient     DIISMaxC        ....  10.000
 Trust-Rad. Augm. Hess. CNVTRAH         .... auto
   Auto Start mean grad. ratio tolernc. ....  1.125000
   Auto Start start iteration           ....    20
   Auto Start num. interpolation iter.  ....    10
   Max. Number of Micro iterations      ....    16
   Max. Number of Macro iterations      .... Maxiter - #DIIS iter
   Number of Davidson start vectors     ....     2
   Converg. threshold I  (grad. norm)   ....   1.000e-05
   Converg. threshold II (energy diff.) ....   1.000e-08
   Grad. Scal. Fac. for Micro threshold ....   0.100
   Minimum threshold for Micro iter.    ....   0.010
   NR start threshold (gradient norm)   ....   0.001
   Initial trust radius                 ....   0.400
   Minimum AH scaling param. (alpha)    ....   1.000
   Maximum AH scaling param. (alpha)    .... 1000.000
   Orbital update algorithm             .... Taylor
   White noise on init. David. guess    .... on
   Maximum white noise                  ....   0.010
   Quad. conv. algorithm                .... NR
 SOSCF                  CNVSOSCF        .... on
   Start iteration      SOSCFMaxIt      ....   150
   Startup grad/error   SOSCFStart      ....  0.003300
 Level Shifting         CNVShift        .... on
   Level shift para.    LevelShift      ....    0.2500
   Turn off err/grad.   ShiftErr        ....    0.0010
 Zerner damping         CNVZerner       .... off
 Static damping         CNVDamp         .... on
   Fraction old density DampFac         ....    0.7000
   Max. Damping (<1)    DampMax         ....    0.9800
   Min. Damping (>=0)   DampMin         ....    0.0000
   Turn off err/grad.   DampErr         ....    0.1000
 Fernandez-Rico         CNVRico         .... off

SCF Procedure:
 Maximum # iterations   MaxIter         ....   500
 SCF integral mode      SCFMode         .... Conventional
 Integral Threshold     Thresh          ....  2.500e-11 Eh
 Primitive CutOff       TCut            ....  2.500e-12 Eh
 Integral Buffer length BufferLength    .... 1048576
 Integral index format  IndFormat       ....     0
 Integral value format  ValFormat       ....     0
 Integral Storage       Thresh          ....  2.500e-11 Eh

Convergence Tolerance:
 Convergence Check Mode ConvCheckMode   .... Total+1el-Energy
 Convergence forced     ConvForced      .... 1
 Energy Change          TolE            ....  1.000e-08 Eh
 1-El. energy change                    ....  1.000e-05 Eh
 Orbital Gradient       TolG            ....  1.000e-05
 Orbital Rotation angle TolX            ....  1.000e-05
 DIIS Error             TolErr          ....  5.000e-07


Diagonalization of the overlap matrix:
Smallest eigenvalue                        ... 1.917e-01
Time for diagonalization                   ...    0.000 sec
Threshold for overlap eigenvalues          ... 1.000e-08
Number of eigenvalues below threshold      ... 0
Time for construction of square roots      ...    0.001 sec
Total time needed                          ...    0.001 sec

--------------------------------
INITIAL GUESS: MINIMAL BASIS EHT
--------------------------------
The minimal basis has 24 functions
EHT matrix was diagonalized
Basis set overlap was calculated now projecting the orbitals
Using GuessMode=FMatrix for the initial guess
C*T matrix was formed
Effective Fockian was calculated
Effective Fockian was diagonalized
Initial density was built
                      ------------------
                      INITIAL GUESS DONE
                      ------------------

 InCore treatment chosen:
   Memory dedicated               ...    1024 MB
   Memory needed                  ...      0 MB
   Number of tiny    integrals    ...     701
   Number of small   integrals    ...    2527
   Number of regular integrals    ...   40490

--------------
SCF ITERATIONS
--------------
ITER       Energy         Delta-E        Max-DP      RMS-DP      [F,P]     Damp
  0   -189.0602224287   0.000000000000 0.17019858  0.01559281  0.3499051 0.7000
  1   -189.1806357592  -0.120413330514 0.14326718  0.01244406  0.2309551 0.7000
                               ***Turning on DIIS***
  2   -189.2551014521  -0.074465692864 0.08861769  0.00781404  0.1283891 0.7000
  3   -189.3386634969  -0.083562044807 0.12567448  0.01414616  0.0784674 0.0000
  4   -189.4155289323  -0.076865435451 0.01673874  0.00192548  0.0101403 0.0000
  5   -189.4146555273   0.000873405092 0.00998338  0.00090072  0.0057393 0.0000
                      *** Initiating the SOSCF procedure ***
                           *** Shutting down DIIS ***
                      *** Re-Reading the Fockian *** 
                      *** Removing any level shift *** 
ITER      Energy       Delta-E        Grad      Rot      Max-DP    RMS-DP
  6   -189.41443691   0.0002186178  0.002192  0.002192  0.004791  0.000497
  7   -189.41618910  -0.0017521856  0.000733  0.001144  0.001818  0.000160
  8   -189.41619398  -0.0000048884  0.000255  0.000909  0.001993  0.000182
  9   -189.41619561  -0.0000016241  0.000144  0.000182  0.000443  0.000034
 10   -189.41619573  -0.0000001242  0.000047  0.000057  0.000112  0.000012
 11   -189.41619576  -0.0000000286  0.000022  0.000092  0.000174  0.000014
 12   -189.41619577  -0.0000000112  0.000010  0.000035  0.000060  0.000004
 13   -189.41619577  -0.0000000015  0.000005  0.000033  0.000053  0.000004
                 **** Energy Check signals convergence ****
              ***Rediagonalizing the Fockian in SOSCF/NRSCF***

               *****************************************************
               *                     SUCCESS                       *
               *           SCF CONVERGED AFTER  14 CYCLES          *
               *****************************************************


----------------
TOTAL SCF ENERGY
----------------

Total Energy       :         -189.41619577 Eh           -5154.27673 eV

Components:
Nuclear Repulsion  :          103.46417888 Eh            2815.40344 eV
Electronic Energy  :         -292.88037466 Eh           -7969.68017 eV
One Electron Energy:         -462.04071366 Eh          -12572.76701 eV
Two Electron Energy:          169.16033900 Eh            4603.08684 eV

Virial components:
Potential Energy   :         -378.42080395 Eh          -10297.35358 eV
Kinetic Energy     :          189.00460818 Eh            5143.07686 eV
Virial Ratio       :            2.00217766


---------------
SCF CONVERGENCE
---------------

  Last Energy change         ...   -7.6096e-10  Tolerance :   1.0000e-08
  Last MAX-Density change    ...    9.7258e-06  Tolerance :   1.0000e-07
  Last RMS-Density change    ...    9.6132e-07  Tolerance :   5.0000e-09
  Last Orbital Gradient      ...    1.6552e-06  Tolerance :   1.0000e-05
  Last Orbital Rotation      ...    3.9247e-06  Tolerance :   1.0000e-05

             **** THE GBW FILE WAS UPDATED (acrolien.790.gbw) ****
             **** DENSITY acrolien.790.scfp WAS UPDATED ****
             **** ENERGY FILE WAS UPDATED (acrolien.790.en.tmp) ****
             **** THE GBW FILE WAS UPDATED (acrolien.790.gbw) ****
             **** DENSITY acrolien.790.scfp WAS UPDATED ****
----------------
ORBITAL ENERGIES
----------------

  NO   OCC          E(Eh)            E(eV) 
   0   2.0000     -20.359377      -554.0068 
   1   2.0000     -11.291440      -307.2557 
   2   2.0000     -11.188413      -304.4522 
   3   2.0000     -11.184910      -304.3569 
   4   2.0000      -1.367349       -37.2075 
   5   2.0000      -1.069582       -29.1048 
   6   2.0000      -0.907604       -24.6972 
   7   2.0000      -0.753197       -20.4955 
   8   2.0000      -0.689331       -18.7576 
   9   2.0000      -0.608387       -16.5550 
  10   2.0000      -0.593756       -16.1569 
  11   2.0000      -0.523859       -14.2549 
  12   2.0000      -0.518225       -14.1016 
  13   2.0000      -0.421620       -11.4729 
  14   2.0000      -0.382966       -10.4210 
  15   0.0000       0.116407         3.1676 
  16   0.0000       0.297289         8.0897 
  17   0.0000       0.549910        14.9638 
  18   0.0000       0.582659        15.8550 
  19   0.0000       0.666050        18.1241 
  20   0.0000       0.702814        19.1245 
  21   0.0000       0.826784        22.4979 
  22   0.0000       0.893988        24.3266 
  23   0.0000       0.994314        27.0567 

                    ********************************
                    * MULLIKEN POPULATION ANALYSIS *
                    ********************************

-----------------------
MULLIKEN ATOMIC CHARGES
-----------------------
   0 C :    0.144360
   1 O :   -0.338973
   2 C :   -0.162790
   3 C :   -0.225150
   4 H :    0.142434
   5 H :    0.140953
   6 H :    0.154051
   7 H :    0.145116
Sum of atomic charges:    0.0000000

--------------------------------
MULLIKEN REDUCED ORBITAL CHARGES
--------------------------------
  0 C s       :     3.071597  s :     3.071597
      pz      :     0.863854  p :     2.784043
      px      :     1.057610
      py      :     0.862579
  1 O s       :     3.851724  s :     3.851724
      pz      :     1.199896  p :     4.487250
      px      :     1.918372
      py      :     1.368982
  2 C s       :     3.101381  s :     3.101381
      pz      :     1.033416  p :     3.061410
      px      :     0.976473
      py      :     1.051521
  3 C s       :     3.136372  s :     3.136372
      pz      :     0.916518  p :     3.088777
      px      :     1.063278
      py      :     1.108982
  4 H s       :     0.857566  s :     0.857566
  5 H s       :     0.859047  s :     0.859047
  6 H s       :     0.845949  s :     0.845949
  7 H s       :     0.854884  s :     0.854884


                     *******************************
                     * LOEWDIN POPULATION ANALYSIS *
                     *******************************

----------------------
LOEWDIN ATOMIC CHARGES
----------------------
   0 C :    0.145158
   1 O :   -0.260483
   2 C :   -0.127045
   3 C :   -0.119450
   4 H :    0.076025
   5 H :    0.095340
   6 H :    0.098705
   7 H :    0.091750

-------------------------------
LOEWDIN REDUCED ORBITAL CHARGES
-------------------------------
  0 C s       :     2.984922  s :     2.984922
      pz      :     0.866708  p :     2.869920
      px      :     1.076026
      py      :     0.927185
  1 O s       :     3.736848  s :     3.736848
      pz      :     1.197832  p :     4.523636
      px      :     1.919659
      py      :     1.406145
  2 C s       :     2.994796  s :     2.994796
      pz      :     1.030371  p :     3.132249
      px      :     1.039983
      py      :     1.061895
  3 C s       :     3.000558  s :     3.000558
      pz      :     0.919230  p :     3.118893
      px      :     1.088006
      py      :     1.111657
  4 H s       :     0.923975  s :     0.923975
  5 H s       :     0.904660  s :     0.904660
  6 H s       :     0.901295  s :     0.901295
  7 H s       :     0.908250  s :     0.908250


                      *****************************
                      * MAYER POPULATION ANALYSIS *
                      *****************************

  NA   - Mulliken gross atomic population
  ZA   - Total nuclear charge
  QA   - Mulliken gross atomic charge
  VA   - Mayer's total valence
  BVA  - Mayer's bonded valence
  FA   - Mayer's free valence

  ATOM       NA         ZA         QA         VA         BVA        FA
  0 C      5.8556     6.0000     0.1444     3.8919     3.8919    -0.0000
  1 O      8.3390     8.0000    -0.3390     2.0556     2.0556     0.0000
  2 C      6.1628     6.0000    -0.1628     3.9730     3.9730     0.0000
  3 C      6.2251     6.0000    -0.2251     3.9459     3.9459     0.0000
  4 H      0.8576     1.0000     0.1424     0.9797     0.9797     0.0000
  5 H      0.8590     1.0000     0.1410     0.9801     0.9801     0.0000
  6 H      0.8459     1.0000     0.1541     0.9763     0.9763    -0.0000
  7 H      0.8549     1.0000     0.1451     0.9789     0.9789     0.0000

  Mayer bond orders larger than 0.100000
B(  0-C ,  1-O ) :   1.8976 B(  0-C ,  2-C ) :   1.0430 B(  0-C ,  4-H ) :   0.9315 
B(  2-C ,  3-C ) :   1.9308 B(  2-C ,  5-H ) :   0.9579 B(  3-C ,  6-H ) :   0.9606 
B(  3-C ,  7-H ) :   0.9675 

-------
TIMINGS
-------

Total SCF time: 0 days 0 hours 0 min 3 sec 

Total time                  ....       3.739 sec
Sum of individual times     ....       1.001 sec  ( 26.8%)

Fock matrix formation       ....       0.090 sec  (  2.4%)
Diagonalization             ....       0.297 sec  (  8.0%)
Density matrix formation    ....       0.000 sec  (  0.0%)
Population analysis         ....       0.607 sec  ( 16.2%)
Initial guess               ....       0.002 sec  (  0.1%)
Orbital Transformation      ....       0.000 sec  (  0.0%)
Orbital Orthonormalization  ....       0.000 sec  (  0.0%)
DIIS solution               ....       0.001 sec  (  0.0%)
SOSCF solution              ....       0.003 sec  (  0.1%)

Maximum memory used throughout the entire SCF-calculation: 225.0 MB
------------------------------------------------------------------------------
                         ORCA CIS CALCULATION
------------------------------------------------------------------------------

Input orbitals are from        ... acrolien.790.gbw
CI-vector output               ... acrolien.790.cis
Tamm-Dancoff approximation     ... operative
CIS-Integral strategy          ... AO-integrals
Integral handling              ... AO integral Conventional
Reference state                ... RHF
Generation of triplets         ... off
Follow IRoot                   ... off
Number of operators            ... 1
Orbital ranges used for CIS calculation:
 Operator 0:  Orbitals   4... 14  to  15... 23
XAS localization array:
 Operator 0:  Orbitals  -1... -1

------------------------
DAVIDSON-DIAGONALIZATION
------------------------

Dimension of the eigenvalue problem            ...     99
Number of roots to be determined               ...      1
Maximum size of the expansion space            ...     10
Maximum number of iterations                   ...    100
Convergence tolerance for the residual         ...    2.500e-07
Convergence tolerance for the energies         ...    2.500e-07
Orthogonality tolerance                        ...    1.000e-14
Level Shift                                    ...    0.000e+00
Constructing the preconditioner                ... o.k.
Building the initial guess                     ... o.k.
Number of trial vectors determined             ...     10


                       ****Iteration    0****

   Memory handling for direct AO based CIS:
   Memory per vector needed      ...     1 MB
   Memory needed                 ...     0 MB
   Memory available              ...   512 MB
   Number of vectors per batch   ...   512
   Number of batches             ...     1
   Time for densities:            0.001
   SHARK[4]
   Time for Sigma-Completion:     0.000
   Size of expansion space: 3
   Lowest Energy          :     0.189599128961
   Maximum Energy change  :     0.189599128961 (vector 0)
   Maximum residual norm  :     0.014611226715

                       ****Iteration    1****
   Time for densities:            0.000
   SHARK[4]
   Time for Sigma-Completion:     0.000
   Size of expansion space: 4
   Lowest Energy          :     0.139557079178
   Maximum Energy change  :     0.050042049783 (vector 0)
   Maximum residual norm  :     0.001130001680

                       ****Iteration    2****
   Time for densities:            0.000
   SHARK[4]
   Time for Sigma-Completion:     0.000
   Size of expansion space: 5
   Lowest Energy          :     0.136656294147
   Maximum Energy change  :     0.002900785032 (vector 0)
   Maximum residual norm  :     0.000100767757

                       ****Iteration    3****
   Time for densities:            0.000
   SHARK[4]
   Time for Sigma-Completion:     0.000
   Size of expansion space: 6
   Lowest Energy          :     0.136501787603
   Maximum Energy change  :     0.000154506544 (vector 0)
   Maximum residual norm  :     0.000010375908

                       ****Iteration    4****
   Time for densities:            0.000
   SHARK[4]
   Time for Sigma-Completion:     0.000
   Size of expansion space: 7
   Lowest Energy          :     0.136485791830
   Maximum Energy change  :     0.000015995773 (vector 0)
   Maximum residual norm  :     0.000000759668

                       ****Iteration    5****
   Time for densities:            0.000
   SHARK[4]
   Time for Sigma-Completion:     0.000
   Size of expansion space: 8
   Lowest Energy          :     0.136484563948
   Maximum Energy change  :     0.000001227882 (vector 0)
   Maximum residual norm  :     0.000000033320

      *** CONVERGENCE OF RESIDUAL NORM REACHED ***

Storing the converged CI vectors               ... acrolien.790.cis1

                 *** DAVIDSON DONE ***

Total time for solving the CIS problem:     0.763sec

-----------------------------
CIS-EXCITED STATES (SINGLETS)
-----------------------------

the weight of the individual excitations are printed if larger than 1.0e-02

STATE  1:  E=   0.136485 au      3.714 eV    29954.9 cm**-1 <S**2> =   0.000000
    10a ->  15a  :     0.010521 (c= -0.10257219)
    13a ->  15a  :     0.815584 (c= -0.90309685)
    13a ->  16a  :     0.133553 (c=  0.36544919)


----------------------
CIS-EXCITATION SPECTRA
----------------------

Center of mass = (  0.5762, -0.9082, -0.0003)
Calculating the Dipole integrals                  ... done
Transforming integrals                            ... done
Calculating the Linear Momentum integrals         ... done
Transforming integrals                            ... done
Calculating angular momentum integrals            ... done
Transforming integrals                            ... done

-----------------------------------------------------------------------------
         ABSORPTION SPECTRUM VIA TRANSITION ELECTRIC DIPOLE MOMENTS
-----------------------------------------------------------------------------
State   Energy    Wavelength  fosc         T2        TX        TY        TZ  
        (cm-1)      (nm)                 (au**2)    (au)      (au)      (au) 
-----------------------------------------------------------------------------
   1   29954.9    333.8   0.000002607   0.00003  -0.00375  -0.00260  -0.00280

-----------------------------------------------------------------------------
         ABSORPTION SPECTRUM VIA TRANSITION VELOCITY DIPOLE MOMENTS
-----------------------------------------------------------------------------
State   Energy    Wavelength   fosc        P2         PX        PY        PZ  
        (cm-1)      (nm)                 (au**2)     (au)      (au)      (au) 
-----------------------------------------------------------------------------
   1   29954.9    333.8   0.000744173   0.00015  -0.00044  -0.00113   0.01228

-------------------------------------------------------------------
                             CD SPECTRUM
-------------------------------------------------------------------
State  Energy     Wavelength     R         MX        MY        MZ   
       (cm-1)       (nm)     (1e40*cgs)   (au)      (au)      (au)  
-------------------------------------------------------------------
   1   29954.9    333.8      0.62729   0.00850  -0.48982  -0.03183

-------------------------------------------------------------------
         CD SPECTRUM VIA TRANSITION VELOCITY DIPOLE MOMENTS        
-------------------------------------------------------------------
State  Energy     Wavelength     R         MX        MY        MZ   
       (cm-1)       (nm)     (1e40*cgs)   (au)      (au)      (au)  
-------------------------------------------------------------------
   1   29954.9    333.8      0.54515   0.00850  -0.48982  -0.03183

Total run time:        1.688 sec

           *** ORCA-CIS/TD-DFT FINISHED WITHOUT ERROR ***

Maximum memory used throughout the entire CIS-calculation: 51.7 MB

-----------------------
CIS/TD-DFT TOTAL ENERGY
-----------------------

    E(SCF)  =   -189.416195774 Eh
    DE(CIS) =      0.136484564 Eh (Root  1)
    ----------------------------- ---------
    E(tot)  =   -189.279711210 Eh



-------------------------------------------------------------------------------
                          DFT DISPERSION CORRECTION                            
                                                                               
                              DFTD3 V3.1  Rev 1                                
                          USING Becke-Johnson damping                          
-------------------------------------------------------------------------------
Hartree-Fock is recognized
Active option DFTDOPT                   ...         4   

molecular C6(AA) [au] = 661.128129 


            DFT-D V3
 parameters
 using HF/MINIX parameters
 s6 scaling factor         :     1.0000 
 a1 scaling factor         :     0.4171 
 s8 scaling factor         :     0.8777 
 a2 scaling factor         :     2.9149 
 ad hoc parameters k1-k3   :    16.0000     1.3333    -4.0000 

 Edisp/kcal,au: -16.061582307637  -0.025595757926 
 E6   /kcal   :  -8.892112304 
 E8   /kcal   :  -7.169470004 
 % E8         :  44.637382959 

-------------------------   ----------------
Dispersion correction           -0.025595758
-------------------------   ----------------

------------------   -----------------
gCP+bas correction        -0.038450748
------------------   -----------------
----------------------------   ----------------
Total correction to HF/MINIX       -0.064046506
----------------------------   ----------------


-------------------------   --------------------
FINAL SINGLE POINT ENERGY      -189.343757715777
-------------------------   --------------------


                            ***************************************
                            *     ORCA property calculations      *
                            ***************************************

                                    ---------------------
                                    Active property flags
                                    ---------------------
   (+) Dipole Moment


------------------------------------------------------------------------------
                       ORCA ELECTRIC PROPERTIES CALCULATION
------------------------------------------------------------------------------

Dipole Moment Calculation                       ... on
Quadrupole Moment Calculation                   ... off
Polarizability Calculation                      ... off
GBWName                                         ... acrolien.790.gbw
Electron density                                ... acrolien.790.scfp
The origin for moment calculation is the CENTER OF MASS  = ( 0.576208, -0.908239 -0.000252)

-------------
DIPOLE MOMENT
-------------
                                X             Y             Z
Electronic contribution:     -2.11589      -1.73402      -0.07920
Nuclear contribution   :      2.40421       2.72413       0.13811
                        -----------------------------------------
Total Dipole Moment    :      0.28832       0.99011       0.05891
                        -----------------------------------------
Magnitude (a.u.)       :      1.03291
Magnitude (Debye)      :      2.62546



--------------------
Rotational spectrum 
--------------------
 
Rotational constants in cm-1:     0.720300     0.207864     0.161560 
Rotational constants in MHz : 21594.063072  6231.603684  4843.433614 

 Dipole components along the rotational axes: 
x,y,z [a.u.] :     0.779690     0.674988     0.058176 
x,y,z [Debye]:     1.981813     1.715684     0.147873 

 

Timings for individual modules:

Sum of individual times         ...        8.980 sec (=   0.150 min)
GTO integral calculation        ...        2.510 sec (=   0.042 min)  28.0 %
SCF iterations                  ...        4.679 sec (=   0.078 min)  52.1 %
CIS module                      ...        1.790 sec (=   0.030 min)  19.9 %
                             ****ORCA TERMINATED NORMALLY****
TOTAL RUN TIME: 0 days 0 hours 0 minutes 10 seconds 764 msec
