
                                 *****************
                                 * O   R   C   A *
                                 *****************

                                            #,                                       
                                            ###                                      
                                            ####                                     
                                            #####                                    
                                            ######                                   
                                           ########,                                 
                                     ,,################,,,,,                         
                               ,,#################################,,                 
                          ,,##########################################,,             
                       ,#########################################, ''#####,          
                    ,#############################################,,   '####,        
                  ,##################################################,,,,####,       
                ,###########''''           ''''###############################       
              ,#####''   ,,,,##########,,,,          '''####'''          '####       
            ,##' ,,,,###########################,,,                        '##       
           ' ,,###''''                  '''############,,,                           
         ,,##''                                '''############,,,,        ,,,,,,###''
      ,#''                                            '''#######################'''  
     '                                                          ''''####''''         
             ,#######,   #######,   ,#######,      ##                                
            ,#'     '#,  ##    ##  ,#'     '#,    #''#        ######   ,####,        
            ##       ##  ##   ,#'  ##            #'  '#       #        #'  '#        
            ##       ##  #######   ##           ,######,      #####,   #    #        
            '#,     ,#'  ##    ##  '#,     ,#' ,#      #,         ##   #,  ,#        
             '#######'   ##     ##  '#######'  #'      '#     #####' # '####'        



                  #######################################################
                  #                        -***-                        #
                  #          Department of theory and spectroscopy      #
                  #    Directorship and core code : Frank Neese         #
                  #        Max Planck Institute fuer Kohlenforschung    #
                  #                Kaiser Wilhelm Platz 1               #
                  #                 D-45470 Muelheim/Ruhr               #
                  #                      Germany                        #
                  #                                                     #
                  #                  All rights reserved                #
                  #                        -***-                        #
                  #######################################################


                         Program Version 5.0.3 -  RELEASE  -


 With contributions from (in alphabetic order):
   Daniel Aravena         : Magnetic Suceptibility
   Michael Atanasov       : Ab Initio Ligand Field Theory (pilot matlab implementation)
   Alexander A. Auer      : GIAO ZORA, VPT2 properties, NMR spectrum
   Ute Becker             : Parallelization
   Giovanni Bistoni       : ED, misc. LED, open-shell LED, HFLD
   Martin Brehm           : Molecular dynamics
   Dmytro Bykov           : SCF Hessian
   Vijay G. Chilkuri      : MRCI spin determinant printing, contributions to CSF-ICE
   Dipayan Datta          : RHF DLPNO-CCSD density
   Achintya Kumar Dutta   : EOM-CC, STEOM-CC
   Dmitry Ganyushin       : Spin-Orbit,Spin-Spin,Magnetic field MRCI
   Miquel Garcia          : C-PCM and meta-GGA Hessian, CC/C-PCM, Gaussian charge scheme
   Yang Guo               : DLPNO-NEVPT2, F12-NEVPT2, CIM, IAO-localization
   Andreas Hansen         : Spin unrestricted coupled pair/coupled cluster methods
   Benjamin Helmich-Paris : MC-RPA, TRAH-SCF, COSX integrals
   Lee Huntington         : MR-EOM, pCC
   Robert Izsak           : Overlap fitted RIJCOSX, COSX-SCS-MP3, EOM
   Marcus Kettner         : VPT2
   Christian Kollmar      : KDIIS, OOCD, Brueckner-CCSD(T), CCSD density, CASPT2, CASPT2-K
   Simone Kossmann        : Meta GGA functionals, TD-DFT gradient, OOMP2, MP2 Hessian
   Martin Krupicka        : Initial AUTO-CI
   Lucas Lang             : DCDCAS
   Marvin Lechner         : AUTO-CI (C++ implementation), FIC-MRCC
   Dagmar Lenk            : GEPOL surface, SMD
   Dimitrios Liakos       : Extrapolation schemes; Compound Job, initial MDCI parallelization
   Dimitrios Manganas     : Further ROCIS development; embedding schemes
   Dimitrios Pantazis     : SARC Basis sets
   Anastasios Papadopoulos: AUTO-CI, single reference methods and gradients
   Taras Petrenko         : DFT Hessian,TD-DFT gradient, ASA, ECA, R-Raman, ABS, FL, XAS/XES, NRVS
   Peter Pinski           : DLPNO-MP2, DLPNO-MP2 Gradient
   Christoph Reimann      : Effective Core Potentials
   Marius Retegan         : Local ZFS, SOC
   Christoph Riplinger    : Optimizer, TS searches, QM/MM, DLPNO-CCSD(T), (RO)-DLPNO pert. Triples
   Tobias Risthaus        : Range-separated hybrids, TD-DFT gradient, RPA, STAB
   Michael Roemelt        : Original ROCIS implementation
   Masaaki Saitow         : Open-shell DLPNO-CCSD energy and density
   Barbara Sandhoefer     : DKH picture change effects
   Avijit Sen             : IP-ROCIS
   Kantharuban Sivalingam : CASSCF convergence, NEVPT2, FIC-MRCI
   Bernardo de Souza      : ESD, SOC TD-DFT
   Georgi Stoychev        : AutoAux, RI-MP2 NMR, DLPNO-MP2 response
   Willem Van den Heuvel  : Paramagnetic NMR
   Boris Wezisla          : Elementary symmetry handling
   Frank Wennmohs         : Technical directorship


 We gratefully acknowledge several colleagues who have allowed us to
 interface, adapt or use parts of their codes:
   Stefan Grimme, W. Hujo, H. Kruse, P. Pracht,  : VdW corrections, initial TS optimization,
                  C. Bannwarth, S. Ehlert          DFT functionals, gCP, sTDA/sTD-DF
   Ed Valeev, F. Pavosevic, A. Kumar             : LibInt (2-el integral package), F12 methods
   Garnet Chan, S. Sharma, J. Yang, R. Olivares  : DMRG
   Ulf Ekstrom                                   : XCFun DFT Library
   Mihaly Kallay                                 : mrcc  (arbitrary order and MRCC methods)
   Jiri Pittner, Ondrej Demel                    : Mk-CCSD
   Frank Weinhold                                : gennbo (NPA and NBO analysis)
   Christopher J. Cramer and Donald G. Truhlar   : smd solvation model
   Lars Goerigk                                  : TD-DFT with DH, B97 family of functionals
   V. Asgeirsson, H. Jonsson                     : NEB implementation
   FAccTs GmbH                                   : IRC, NEB, NEB-TS, DLPNO-Multilevel, CI-OPT
                                                   MM, QMMM, 2- and 3-layer-ONIOM, Crystal-QMMM,
                                                   LR-CPCM, SF, NACMEs, symmetry and pop. for TD-DFT,
                                                   nearIR, NL-DFT gradient (VV10), updates on ESD,
                                                   ML-optimized integration grids
   S Lehtola, MJT Oliveira, MAL Marques          : LibXC Library
   Liviu Ungur et al                             : ANISO software


 Your calculation uses the libint2 library for the computation of 2-el integrals
 For citations please refer to: http://libint.valeyev.net

 Your ORCA version has been built with support for libXC version: 5.1.0
 For citations please refer to: https://tddft.org/programs/libxc/

 This ORCA versions uses:
   CBLAS   interface :  Fast vector & matrix operations
   LAPACKE interface :  Fast linear algebra routines
   SCALAPACK package :  Parallel linear algebra routines
   Shared memory     :  Shared parallel matrices
   BLAS/LAPACK       :  OpenBLAS 0.3.15  USE64BITINT DYNAMIC_ARCH NO_AFFINITY Haswell SINGLE_THREADED
        Core in use  :  Haswell
   Copyright (c) 2011-2014, The OpenBLAS Project


Your calculation utilizes the geometrical counterpoise correction gCP
Please cite in your paper:
H.Kruse, S. Grimme J.Chem.Phys., 136, (2012), 154101 
   

Your calculation utilizes the atom-pairwise dispersion correction
with the Becke-Johnson damping scheme (D3BJ)
Cite in your paper:
S.Grimme, S.Ehrlich, L.Goerigk, J Comput Chem, (2011), 32, 1456–1465 
S.Grimme, J.Antony, S.Ehrlich and H.Krieg, J.Chem.Phys., 132, (2010), 154104 
   

================================================================================

----- Orbital basis set information -----
Your calculation utilizes the basis: MINIX,
   a combination of small basis sets by S. Grimme (see manual for definitions).

================================================================================
                                        WARNINGS
                       Please study these warnings very carefully!
================================================================================

INFO   : Checking CIS options ...

INFO   : the flag for use of the SHARK integral package has been found!

================================================================================
                                       INPUT FILE
================================================================================
NAME = acrolien.872.com
|  1> ! HF-3c
|  2> !TightSCF
|  3> %scf
|  4>  ConvForced true
|  5>  convergence tight
|  6>  MaxIter 500
|  7> end
|  8>  
|  9> %tddft 
| 10>  nroots 1
| 11> end
| 12> 
| 13> # 	2639
| 14> * xyz 0 1
| 15> 		C   -1.136848  -0.308212   0.114477
| 16> 		O   -2.206741  -0.274224   0.721394
| 17> 		C    0.054325   0.358379   0.416949
| 18> 		C    1.073076   0.277440  -0.375329
| 19> 		H   -1.114152  -1.001168  -0.934477
| 20> 		H    0.081087   0.786963   1.323145
| 21> 		H    1.207029  -0.507005  -1.181897
| 22> 		H    2.009827   0.663921  -0.087316
| 23> *
| 24> 
| 25>                          ****END OF INPUT****
================================================================================

                       ****************************
                       * Single Point Calculation *
                       ****************************

---------------------------------
CARTESIAN COORDINATES (ANGSTROEM)
---------------------------------
  C     -1.136848   -0.308212    0.114477
  O     -2.206741   -0.274224    0.721394
  C      0.054325    0.358379    0.416949
  C      1.073076    0.277440   -0.375329
  H     -1.114152   -1.001168   -0.934477
  H      0.081087    0.786963    1.323145
  H      1.207029   -0.507005   -1.181897
  H      2.009827    0.663921   -0.087316

----------------------------
CARTESIAN COORDINATES (A.U.)
----------------------------
  NO LB      ZA    FRAG     MASS         X           Y           Z
   0 C     6.0000    0    12.011   -2.148331   -0.582436    0.216330
   1 O     8.0000    0    15.999   -4.170136   -0.518208    1.363237
   2 C     6.0000    0    12.011    0.102659    0.677238    0.787919
   3 C     6.0000    0    12.011    2.027820    0.524286   -0.709269
   4 H     1.0000    0     1.008   -2.105442   -1.891933   -1.765906
   5 H     1.0000    0     1.008    0.153232    1.487145    2.500382
   6 H     1.0000    0     1.008    2.280954   -0.958101   -2.233462
   7 H     1.0000    0     1.008    3.798023    1.254629   -0.165003

--------------------------------
INTERNAL COORDINATES (ANGSTROEM)
--------------------------------
 C      0   0   0     0.000000000000     0.00000000     0.00000000
 O      1   0   0     1.230517964307     0.00000000     0.00000000
 C      1   2   0     1.398115155484   128.38172521     0.00000000
 C      3   1   2     1.293100595857   120.58585461   184.22979551
 H      1   2   3     1.257381255017   116.25578338   182.12523003
 H      3   1   2     1.002791922642   114.96161830    11.52618122
 H      4   3   1     1.133070740447   124.93288278   342.94567424
 H      4   3   1     1.053480653610   120.66859598   188.61760536

---------------------------
INTERNAL COORDINATES (A.U.)
---------------------------
 C      0   0   0     0.000000000000     0.00000000     0.00000000
 O      1   0   0     2.325341955410     0.00000000     0.00000000
 C      1   2   0     2.642054747549   128.38172521     0.00000000
 C      3   1   2     2.443605989780   120.58585461   184.22979551
 H      1   2   3     2.376106217908   116.25578338   182.12523003
 H      3   1   2     1.895002103102   114.96161830    11.52618122
 H      4   3   1     2.141193389805   124.93288278   342.94567424
 H      4   3   1     1.990789922708   120.66859598   188.61760536

---------------------
BASIS SET INFORMATION
---------------------
There are 3 groups of distinct atoms

 Group   1 Type C   : 6s3p contracted to 2s1p pattern {33/3}
 Group   2 Type O   : 6s3p contracted to 2s1p pattern {33/3}
 Group   3 Type H   : 3s contracted to 1s pattern {3}

Atom   0C    basis set group =>   1
Atom   1O    basis set group =>   2
Atom   2C    basis set group =>   1
Atom   3C    basis set group =>   1
Atom   4H    basis set group =>   3
Atom   5H    basis set group =>   3
Atom   6H    basis set group =>   3
Atom   7H    basis set group =>   3
------------------------------------------------------------------------------
                           ORCA GTO INTEGRAL CALCULATION
------------------------------------------------------------------------------
------------------------------------------------------------------------------
                   ___                                                        
                  /   \      - P O W E R E D   B Y -                         
                 /     \                                                     
                 |  |  |   _    _      __       _____    __    __             
                 |  |  |  | |  | |    /  \     |  _  \  |  |  /  |          
                  \  \/   | |  | |   /    \    | | | |  |  | /  /          
                 / \  \   | |__| |  /  /\  \   | |_| |  |  |/  /          
                |  |  |   |  __  | /  /__\  \  |    /   |      \           
                |  |  |   | |  | | |   __   |  |    \   |  |\   \          
                \     /   | |  | | |  |  |  |  | |\  \  |  | \   \       
                 \___/    |_|  |_| |__|  |__|  |_| \__\ |__|  \__/        
                                                                              
                      - O R C A' S   B I G   F R I E N D -                    
                                      &                                       
                       - I N T E G R A L  F E E D E R -                       
                                                                              
 v1 FN, 2020, v2 2021                                                         
------------------------------------------------------------------------------


Reading SHARK input file acrolien.872.SHARKINP.tmp ... ok
----------------------
SHARK INTEGRAL PACKAGE
----------------------

Number of atoms                             ...      8
Number of basis functions                   ...     24
Number of shells                            ...     16
Maximum angular momentum                    ...      1
Integral batch strategy                     ... SHARK/LIBINT Hybrid
RI-J (if used) integral strategy            ... SPLIT-RIJ (Revised 2003 algorithm where possible)
Printlevel                                  ...      1
Contraction scheme used                     ... SEGMENTED contraction
Coulomb Range Separation                    ... NOT USED
Exchange Range Separation                   ... NOT USED
Finite Nucleus Model                        ... NOT USED
Auxiliary Coulomb fitting basis             ... NOT available
Auxiliary J/K fitting basis                 ... NOT available
Auxiliary Correlation fitting basis         ... NOT available
Auxiliary 'external' fitting basis          ... NOT available
Integral threshold                          ...     2.500000e-11
Primitive cut-off                           ...     2.500000e-12
Primitive pair pre-selection threshold      ...     2.500000e-12

Calculating pre-screening integrals         ... done (  0.0 sec) Dimension = 16
Organizing shell pair data                  ... done (  0.2 sec)
Shell pair information
Total number of shell pairs                 ...       136
Shell pairs after pre-screening             ...       133
Total number of primitive shell pairs       ...      1224
Primitive shell pairs kept                  ...      1001
          la=0 lb=0:     75 shell pairs
          la=1 lb=0:     48 shell pairs
          la=1 lb=1:     10 shell pairs

Calculating one electron integrals          ... done (  0.0 sec)
Calculating Nuclear repulsion               ... done (  0.0 sec) ENN=    104.479933761117 Eh
Calculating 4-index integrals               ... 
    -> SHARK/Ints2Disk: Thresh =     2.500000e-11 TCut=    2.500000e-12 
    -> calling libint FockFlag=2 Lmax_loc=1
    ->Total LIBINT loop time =    0.000 sec
    -> L=0 0 0 0:     0.003 sec done=      2820 (=100.0%) skipped=         0 
    -> L=1 0 0 0:     0.007 sec done=      3588 (=100.0%) skipped=         0 
    -> L=1 0 1 0:     0.004 sec done=      1175 (=100.0%) skipped=         0 
    -> L=1 1 0 0:     0.003 sec done=       750 (=100.0%) skipped=         0 
    -> L=1 1 1 0:     0.004 sec done=       480 (=100.0%) skipped=         0 
    -> L=1 1 1 1:     0.001 sec done=        55 (=100.0%) skipped=         0 
    ->Total SHARK integral loop time =    0.022 sec
    -> Total Integral generation matrix time =    0.675 sec
    -> Number of small integrals   =       877
    -> Number of medium integrals  =      2567
    -> Number of large integrals   =     40298
    -> Number of MB stored         =         0 MB


SHARK setup successfully completed in   2.6 seconds

Maximum memory used throughout the entire GTOINT-calculation: 29.5 MB
-------------------------------------------------------------------------------
                                 ORCA SCF
-------------------------------------------------------------------------------

------------
SCF SETTINGS
------------
Hamiltonian:
 Ab initio Hamiltonian  Method          .... Hartree-Fock(GTOs)


General Settings:
 Integral files         IntName         .... acrolien.872
 Hartree-Fock type      HFTyp           .... RHF
 Total Charge           Charge          ....    0
 Multiplicity           Mult            ....    1
 Number of Electrons    NEL             ....   30
 Basis Dimension        Dim             ....   24
 Nuclear Repulsion      ENuc            ....    104.4799337611 Eh

Convergence Acceleration:
 DIIS                   CNVDIIS         .... on
   Start iteration      DIISMaxIt       ....    12
   Startup error        DIISStart       ....  0.200000
   # of expansion vecs  DIISMaxEq       ....     5
   Bias factor          DIISBfac        ....   1.050
   Max. coefficient     DIISMaxC        ....  10.000
 Trust-Rad. Augm. Hess. CNVTRAH         .... auto
   Auto Start mean grad. ratio tolernc. ....  1.125000
   Auto Start start iteration           ....    20
   Auto Start num. interpolation iter.  ....    10
   Max. Number of Micro iterations      ....    16
   Max. Number of Macro iterations      .... Maxiter - #DIIS iter
   Number of Davidson start vectors     ....     2
   Converg. threshold I  (grad. norm)   ....   1.000e-05
   Converg. threshold II (energy diff.) ....   1.000e-08
   Grad. Scal. Fac. for Micro threshold ....   0.100
   Minimum threshold for Micro iter.    ....   0.010
   NR start threshold (gradient norm)   ....   0.001
   Initial trust radius                 ....   0.400
   Minimum AH scaling param. (alpha)    ....   1.000
   Maximum AH scaling param. (alpha)    .... 1000.000
   Orbital update algorithm             .... Taylor
   White noise on init. David. guess    .... on
   Maximum white noise                  ....   0.010
   Quad. conv. algorithm                .... NR
 SOSCF                  CNVSOSCF        .... on
   Start iteration      SOSCFMaxIt      ....   150
   Startup grad/error   SOSCFStart      ....  0.003300
 Level Shifting         CNVShift        .... on
   Level shift para.    LevelShift      ....    0.2500
   Turn off err/grad.   ShiftErr        ....    0.0010
 Zerner damping         CNVZerner       .... off
 Static damping         CNVDamp         .... on
   Fraction old density DampFac         ....    0.7000
   Max. Damping (<1)    DampMax         ....    0.9800
   Min. Damping (>=0)   DampMin         ....    0.0000
   Turn off err/grad.   DampErr         ....    0.1000
 Fernandez-Rico         CNVRico         .... off

SCF Procedure:
 Maximum # iterations   MaxIter         ....   500
 SCF integral mode      SCFMode         .... Conventional
 Integral Threshold     Thresh          ....  2.500e-11 Eh
 Primitive CutOff       TCut            ....  2.500e-12 Eh
 Integral Buffer length BufferLength    .... 1048576
 Integral index format  IndFormat       ....     0
 Integral value format  ValFormat       ....     0
 Integral Storage       Thresh          ....  2.500e-11 Eh

Convergence Tolerance:
 Convergence Check Mode ConvCheckMode   .... Total+1el-Energy
 Convergence forced     ConvForced      .... 1
 Energy Change          TolE            ....  1.000e-08 Eh
 1-El. energy change                    ....  1.000e-05 Eh
 Orbital Gradient       TolG            ....  1.000e-05
 Orbital Rotation angle TolX            ....  1.000e-05
 DIIS Error             TolErr          ....  5.000e-07


Diagonalization of the overlap matrix:
Smallest eigenvalue                        ... 1.639e-01
Time for diagonalization                   ...    0.000 sec
Threshold for overlap eigenvalues          ... 1.000e-08
Number of eigenvalues below threshold      ... 0
Time for construction of square roots      ...    0.001 sec
Total time needed                          ...    0.001 sec

--------------------------------
INITIAL GUESS: MINIMAL BASIS EHT
--------------------------------
The minimal basis has 24 functions
EHT matrix was diagonalized
Basis set overlap was calculated now projecting the orbitals
Using GuessMode=FMatrix for the initial guess
C*T matrix was formed
Effective Fockian was calculated
Effective Fockian was diagonalized
Initial density was built
                      ------------------
                      INITIAL GUESS DONE
                      ------------------

 InCore treatment chosen:
   Memory dedicated               ...    1024 MB
   Memory needed                  ...      0 MB
   Number of tiny    integrals    ...     877
   Number of small   integrals    ...    2567
   Number of regular integrals    ...   40298

--------------
SCF ITERATIONS
--------------
ITER       Energy         Delta-E        Max-DP      RMS-DP      [F,P]     Damp
  0   -188.9341238719   0.000000000000 0.13538012  0.01563995  0.3031371 0.7000
  1   -189.0785310732  -0.144407201211 0.10464413  0.01241909  0.2190822 0.7000
                               ***Turning on DIIS***
  2   -189.1713433673  -0.092812294167 0.06455669  0.00797642  0.1571478 0.7000
  3   -189.2015687106  -0.030225343291 0.03376712  0.00470054  0.1126970 0.7000
  4   -189.2415914632  -0.040022752638 0.09019525  0.01159494  0.0797549 0.0000
  5   -189.3781490063  -0.136557543020 0.01284989  0.00137287  0.0079956 0.0000
                      *** Initiating the SOSCF procedure ***
                           *** Shutting down DIIS ***
                      *** Re-Reading the Fockian *** 
                      *** Removing any level shift *** 
ITER      Energy       Delta-E        Grad      Rot      Max-DP    RMS-DP
  6   -189.37944962  -0.0013006171  0.002100  0.002100  0.003168  0.000420
  7   -189.37971218  -0.0002625556  0.000828  0.001261  0.001751  0.000245
  8   -189.37972278  -0.0000106033  0.000439  0.001145  0.000925  0.000165
  9   -189.37972485  -0.0000020636  0.000100  0.000063  0.000282  0.000032
 10   -189.37972494  -0.0000000935  0.000056  0.000064  0.000117  0.000011
 11   -189.37972496  -0.0000000197  0.000016  0.000035  0.000092  0.000007
                 **** Energy Check signals convergence ****
              ***Rediagonalizing the Fockian in SOSCF/NRSCF***

               *****************************************************
               *                     SUCCESS                       *
               *           SCF CONVERGED AFTER  12 CYCLES          *
               *****************************************************


----------------
TOTAL SCF ENERGY
----------------

Total Energy       :         -189.37972496 Eh           -5153.28430 eV

Components:
Nuclear Repulsion  :          104.47993376 Eh            2843.04354 eV
Electronic Energy  :         -293.85965872 Eh           -7996.32784 eV
One Electron Energy:         -463.65275634 Eh          -12616.63292 eV
Two Electron Energy:          169.79309761 Eh            4620.30508 eV

Virial components:
Potential Energy   :         -378.63647811 Eh          -10303.22237 eV
Kinetic Energy     :          189.25675314 Eh            5149.93807 eV
Virial Ratio       :            2.00064976


---------------
SCF CONVERGENCE
---------------

  Last Energy change         ...   -3.4966e-09  Tolerance :   1.0000e-08
  Last MAX-Density change    ...    3.1938e-05  Tolerance :   1.0000e-07
  Last RMS-Density change    ...    2.4652e-06  Tolerance :   5.0000e-09
  Last Orbital Gradient      ...    4.8517e-06  Tolerance :   1.0000e-05
  Last Orbital Rotation      ...    1.3797e-05  Tolerance :   1.0000e-05

             **** THE GBW FILE WAS UPDATED (acrolien.872.gbw) ****
             **** DENSITY acrolien.872.scfp WAS UPDATED ****
             **** ENERGY FILE WAS UPDATED (acrolien.872.en.tmp) ****
             **** THE GBW FILE WAS UPDATED (acrolien.872.gbw) ****
             **** DENSITY acrolien.872.scfp WAS UPDATED ****
----------------
ORBITAL ENERGIES
----------------

  NO   OCC          E(Eh)            E(eV) 
   0   2.0000     -20.351873      -553.8026 
   1   2.0000     -11.286269      -307.1150 
   2   2.0000     -11.210680      -305.0581 
   3   2.0000     -11.209822      -305.0348 
   4   2.0000      -1.380919       -37.5767 
   5   2.0000      -1.123131       -30.5620 
   6   2.0000      -0.897532       -24.4231 
   7   2.0000      -0.776758       -21.1367 
   8   2.0000      -0.674943       -18.3661 
   9   2.0000      -0.652657       -17.7597 
  10   2.0000      -0.572086       -15.5673 
  11   2.0000      -0.551368       -15.0035 
  12   2.0000      -0.538097       -14.6424 
  13   2.0000      -0.407835       -11.0978 
  14   2.0000      -0.399310       -10.8658 
  15   0.0000       0.118835         3.2337 
  16   0.0000       0.316623         8.6158 
  17   0.0000       0.502584        13.6760 
  18   0.0000       0.557372        15.1669 
  19   0.0000       0.669834        18.2271 
  20   0.0000       0.783604        21.3229 
  21   0.0000       0.834679        22.7128 
  22   0.0000       0.960732        26.1428 
  23   0.0000       1.076326        29.2883 

                    ********************************
                    * MULLIKEN POPULATION ANALYSIS *
                    ********************************

-----------------------
MULLIKEN ATOMIC CHARGES
-----------------------
   0 C :    0.181342
   1 O :   -0.354142
   2 C :   -0.207830
   3 C :   -0.206290
   4 H :    0.120366
   5 H :    0.164734
   6 H :    0.153926
   7 H :    0.147893
Sum of atomic charges:    0.0000000

--------------------------------
MULLIKEN REDUCED ORBITAL CHARGES
--------------------------------
  0 C s       :     3.067899  s :     3.067899
      pz      :     0.960937  p :     2.750759
      px      :     0.858901
      py      :     0.930921
  1 O s       :     3.840071  s :     3.840071
      pz      :     1.583633  p :     4.514071
      px      :     1.463308
      py      :     1.467129
  2 C s       :     3.048924  s :     3.048924
      pz      :     1.086239  p :     3.158906
      px      :     1.019307
      py      :     1.053360
  3 C s       :     3.131461  s :     3.131461
      pz      :     1.024469  p :     3.074829
      px      :     1.063746
      py      :     0.986614
  4 H s       :     0.879634  s :     0.879634
  5 H s       :     0.835266  s :     0.835266
  6 H s       :     0.846074  s :     0.846074
  7 H s       :     0.852107  s :     0.852107


                     *******************************
                     * LOEWDIN POPULATION ANALYSIS *
                     *******************************

----------------------
LOEWDIN ATOMIC CHARGES
----------------------
   0 C :    0.150745
   1 O :   -0.266587
   2 C :   -0.144947
   3 C :   -0.107821
   4 H :    0.070703
   5 H :    0.100379
   6 H :    0.104789
   7 H :    0.092737

-------------------------------
LOEWDIN REDUCED ORBITAL CHARGES
-------------------------------
  0 C s       :     2.997022  s :     2.997022
      pz      :     0.978336  p :     2.852233
      px      :     0.935260
      py      :     0.938637
  1 O s       :     3.714927  s :     3.714927
      pz      :     1.592638  p :     4.551661
      px      :     1.492642
      py      :     1.466381
  2 C s       :     2.927136  s :     2.927136
      pz      :     1.085290  p :     3.217811
      px      :     1.074609
      py      :     1.057911
  3 C s       :     2.996369  s :     2.996369
      pz      :     1.039606  p :     3.111452
      px      :     1.086941
      py      :     0.984905
  4 H s       :     0.929297  s :     0.929297
  5 H s       :     0.899621  s :     0.899621
  6 H s       :     0.895211  s :     0.895211
  7 H s       :     0.907263  s :     0.907263


                      *****************************
                      * MAYER POPULATION ANALYSIS *
                      *****************************

  NA   - Mulliken gross atomic population
  ZA   - Total nuclear charge
  QA   - Mulliken gross atomic charge
  VA   - Mayer's total valence
  BVA  - Mayer's bonded valence
  FA   - Mayer's free valence

  ATOM       NA         ZA         QA         VA         BVA        FA
  0 C      5.8187     6.0000     0.1813     3.8780     3.8780     0.0000
  1 O      8.3541     8.0000    -0.3541     2.0601     2.0601     0.0000
  2 C      6.2078     6.0000    -0.2078     3.9718     3.9718     0.0000
  3 C      6.2063     6.0000    -0.2063     3.9432     3.9432     0.0000
  4 H      0.8796     1.0000     0.1204     0.9855     0.9855     0.0000
  5 H      0.8353     1.0000     0.1647     0.9729     0.9729     0.0000
  6 H      0.8461     1.0000     0.1539     0.9763     0.9763     0.0000
  7 H      0.8521     1.0000     0.1479     0.9781     0.9781    -0.0000

  Mayer bond orders larger than 0.100000
B(  0-C ,  1-O ) :   1.8873 B(  0-C ,  2-C ) :   1.0619 B(  0-C ,  4-H ) :   0.9111 
B(  2-C ,  3-C ) :   1.9256 B(  2-C ,  5-H ) :   0.9489 B(  3-C ,  6-H ) :   0.9593 
B(  3-C ,  7-H ) :   0.9635 

-------
TIMINGS
-------

Total SCF time: 0 days 0 hours 0 min 2 sec 

Total time                  ....       2.937 sec
Sum of individual times     ....       0.653 sec  ( 22.2%)

Fock matrix formation       ....       0.087 sec  (  3.0%)
Diagonalization             ....       0.001 sec  (  0.0%)
Density matrix formation    ....       0.000 sec  (  0.0%)
Population analysis         ....       0.405 sec  ( 13.8%)
Initial guess               ....       0.002 sec  (  0.1%)
Orbital Transformation      ....       0.000 sec  (  0.0%)
Orbital Orthonormalization  ....       0.000 sec  (  0.0%)
DIIS solution               ....       0.001 sec  (  0.0%)
SOSCF solution              ....       0.155 sec  (  5.3%)

Maximum memory used throughout the entire SCF-calculation: 224.9 MB
------------------------------------------------------------------------------
                         ORCA CIS CALCULATION
------------------------------------------------------------------------------

Input orbitals are from        ... acrolien.872.gbw
CI-vector output               ... acrolien.872.cis
Tamm-Dancoff approximation     ... operative
CIS-Integral strategy          ... AO-integrals
Integral handling              ... AO integral Conventional
Reference state                ... RHF
Generation of triplets         ... off
Follow IRoot                   ... off
Number of operators            ... 1
Orbital ranges used for CIS calculation:
 Operator 0:  Orbitals   4... 14  to  15... 23
XAS localization array:
 Operator 0:  Orbitals  -1... -1

------------------------
DAVIDSON-DIAGONALIZATION
------------------------

Dimension of the eigenvalue problem            ...     99
Number of roots to be determined               ...      1
Maximum size of the expansion space            ...     10
Maximum number of iterations                   ...    100
Convergence tolerance for the residual         ...    2.500e-07
Convergence tolerance for the energies         ...    2.500e-07
Orthogonality tolerance                        ...    1.000e-14
Level Shift                                    ...    0.000e+00
Constructing the preconditioner                ... o.k.
Building the initial guess                     ... o.k.
Number of trial vectors determined             ...     10


                       ****Iteration    0****

   Memory handling for direct AO based CIS:
   Memory per vector needed      ...     1 MB
   Memory needed                 ...     0 MB
   Memory available              ...   512 MB
   Number of vectors per batch   ...   512
   Number of batches             ...     1
   Time for densities:            0.001
   SHARK[4]
   Time for Sigma-Completion:     0.000
   Size of expansion space: 3
   Lowest Energy          :     0.199313489688
   Maximum Energy change  :     0.199313489688 (vector 0)
   Maximum residual norm  :     0.015123006846

                       ****Iteration    1****
   Time for densities:            0.000
   SHARK[4]
   Time for Sigma-Completion:     0.000
   Size of expansion space: 4
   Lowest Energy          :     0.142933363326
   Maximum Energy change  :     0.056380126362 (vector 0)
   Maximum residual norm  :     0.001121209871

                       ****Iteration    2****
   Time for densities:            0.000
   SHARK[4]
   Time for Sigma-Completion:     0.000
   Size of expansion space: 5
   Lowest Energy          :     0.139800875433
   Maximum Energy change  :     0.003132487892 (vector 0)
   Maximum residual norm  :     0.000061289935

                       ****Iteration    3****
   Time for densities:            0.000
   SHARK[4]
   Time for Sigma-Completion:     0.000
   Size of expansion space: 6
   Lowest Energy          :     0.139695882917
   Maximum Energy change  :     0.000104992517 (vector 0)
   Maximum residual norm  :     0.000003737799

                       ****Iteration    4****
   Time for densities:            0.000
   SHARK[4]
   Time for Sigma-Completion:     0.000
   Size of expansion space: 7
   Lowest Energy          :     0.139688958231
   Maximum Energy change  :     0.000006924686 (vector 0)
   Maximum residual norm  :     0.000000423502

                       ****Iteration    5****
   Time for densities:            0.000
   SHARK[4]
   Time for Sigma-Completion:     0.000
   Size of expansion space: 8
   Lowest Energy          :     0.139688048529
   Maximum Energy change  :     0.000000909702 (vector 0)
   Maximum residual norm  :     0.000000059201

      *** CONVERGENCE OF RESIDUAL NORM REACHED ***

Storing the converged CI vectors               ... acrolien.872.cis1

                 *** DAVIDSON DONE ***

Total time for solving the CIS problem:     1.510sec

-----------------------------
CIS-EXCITED STATES (SINGLETS)
-----------------------------

the weight of the individual excitations are printed if larger than 1.0e-02

STATE  1:  E=   0.139688 au      3.801 eV    30658.0 cm**-1 <S**2> =   0.000000
     9a ->  15a  :     0.011046 (c= -0.10509832)
    10a ->  15a  :     0.012426 (c= -0.11147054)
    13a ->  15a  :     0.103469 (c= -0.32166639)
    13a ->  16a  :     0.022348 (c= -0.14949189)
    14a ->  15a  :     0.686217 (c= -0.82838209)
    14a ->  16a  :     0.137933 (c= -0.37139280)


----------------------
CIS-EXCITATION SPECTRA
----------------------

Center of mass = ( -1.1197, -0.0172,  0.4223)
Calculating the Dipole integrals                  ... done
Transforming integrals                            ... done
Calculating the Linear Momentum integrals         ... done
Transforming integrals                            ... done
Calculating angular momentum integrals            ... done
Transforming integrals                            ... done

-----------------------------------------------------------------------------
         ABSORPTION SPECTRUM VIA TRANSITION ELECTRIC DIPOLE MOMENTS
-----------------------------------------------------------------------------
State   Energy    Wavelength  fosc         T2        TX        TY        TZ  
        (cm-1)      (nm)                 (au**2)    (au)      (au)      (au) 
-----------------------------------------------------------------------------
   1   30658.0    326.2   0.000053073   0.00057   0.01811  -0.00722   0.01378

-----------------------------------------------------------------------------
         ABSORPTION SPECTRUM VIA TRANSITION VELOCITY DIPOLE MOMENTS
-----------------------------------------------------------------------------
State   Energy    Wavelength   fosc        P2         PX        PY        PZ  
        (cm-1)      (nm)                 (au**2)     (au)      (au)      (au) 
-----------------------------------------------------------------------------
   1   30658.0    326.2   0.000911550   0.00019  -0.00620   0.01026  -0.00687

-------------------------------------------------------------------
                             CD SPECTRUM
-------------------------------------------------------------------
State  Energy     Wavelength     R         MX        MY        MZ   
       (cm-1)       (nm)     (1e40*cgs)   (au)      (au)      (au)  
-------------------------------------------------------------------
   1   30658.0    326.2     -2.53761  -0.45844  -0.03473   0.19364

-------------------------------------------------------------------
         CD SPECTRUM VIA TRANSITION VELOCITY DIPOLE MOMENTS        
-------------------------------------------------------------------
State  Energy     Wavelength     R         MX        MY        MZ   
       (cm-1)       (nm)     (1e40*cgs)   (au)      (au)      (au)  
-------------------------------------------------------------------
   1   30658.0    326.2      3.89712  -0.45844  -0.03473   0.19364

Total run time:        2.467 sec

           *** ORCA-CIS/TD-DFT FINISHED WITHOUT ERROR ***

Maximum memory used throughout the entire CIS-calculation: 51.7 MB

-----------------------
CIS/TD-DFT TOTAL ENERGY
-----------------------

    E(SCF)  =   -189.379724963 Eh
    DE(CIS) =      0.139688049 Eh (Root  1)
    ----------------------------- ---------
    E(tot)  =   -189.240036914 Eh



-------------------------------------------------------------------------------
                          DFT DISPERSION CORRECTION                            
                                                                               
                              DFTD3 V3.1  Rev 1                                
                          USING Becke-Johnson damping                          
-------------------------------------------------------------------------------
Hartree-Fock is recognized
Active option DFTDOPT                   ...         4   

molecular C6(AA) [au] = 661.592946 


            DFT-D V3
 parameters
 using HF/MINIX parameters
 s6 scaling factor         :     1.0000 
 a1 scaling factor         :     0.4171 
 s8 scaling factor         :     0.8777 
 a2 scaling factor         :     2.9149 
 ad hoc parameters k1-k3   :    16.0000     1.3333    -4.0000 

 Edisp/kcal,au: -16.393221043958  -0.026124257837 
 E6   /kcal   :  -9.076272492 
 E8   /kcal   :  -7.316948552 
 % E8         :  44.633989455 

-------------------------   ----------------
Dispersion correction           -0.026124258
-------------------------   ----------------

------------------   -----------------
gCP+bas correction        -0.049306324
------------------   -----------------
----------------------------   ----------------
Total correction to HF/MINIX       -0.075430582
----------------------------   ----------------


-------------------------   --------------------
FINAL SINGLE POINT ENERGY      -189.315467495814
-------------------------   --------------------


                            ***************************************
                            *     ORCA property calculations      *
                            ***************************************

                                    ---------------------
                                    Active property flags
                                    ---------------------
   (+) Dipole Moment


------------------------------------------------------------------------------
                       ORCA ELECTRIC PROPERTIES CALCULATION
------------------------------------------------------------------------------

Dipole Moment Calculation                       ... on
Quadrupole Moment Calculation                   ... off
Polarizability Calculation                      ... off
GBWName                                         ... acrolien.872.gbw
Electron density                                ... acrolien.872.scfp
The origin for moment calculation is the CENTER OF MASS  = (-1.119661, -0.017196  0.422306)

-------------
DIPOLE MOMENT
-------------
                                X             Y             Z
Electronic contribution:     -3.04967      -0.04384       1.11516
Nuclear contribution   :      4.24838      -0.02352      -1.65738
                        -----------------------------------------
Total Dipole Moment    :      1.19871      -0.06736      -0.54221
                        -----------------------------------------
Magnitude (a.u.)       :      1.31736
Magnitude (Debye)      :      3.34846



--------------------
Rotational spectrum 
--------------------
 
Rotational constants in cm-1:     1.657196     0.160535     0.146602 
Rotational constants in MHz : 49681.473172  4812.706053  4395.028059 

 Dipole components along the rotational axes: 
x,y,z [a.u.] :    -1.262759    -0.353046     0.127422 
x,y,z [Debye]:    -3.209679    -0.897372     0.323882 

 

Timings for individual modules:

Sum of individual times         ...       10.292 sec (=   0.172 min)
GTO integral calculation        ...        4.331 sec (=   0.072 min)  42.1 %
SCF iterations                  ...        3.204 sec (=   0.053 min)  31.1 %
CIS module                      ...        2.757 sec (=   0.046 min)  26.8 %
                             ****ORCA TERMINATED NORMALLY****
TOTAL RUN TIME: 0 days 0 hours 0 minutes 11 seconds 263 msec
