
                                 *****************
                                 * O   R   C   A *
                                 *****************

                                            #,                                       
                                            ###                                      
                                            ####                                     
                                            #####                                    
                                            ######                                   
                                           ########,                                 
                                     ,,################,,,,,                         
                               ,,#################################,,                 
                          ,,##########################################,,             
                       ,#########################################, ''#####,          
                    ,#############################################,,   '####,        
                  ,##################################################,,,,####,       
                ,###########''''           ''''###############################       
              ,#####''   ,,,,##########,,,,          '''####'''          '####       
            ,##' ,,,,###########################,,,                        '##       
           ' ,,###''''                  '''############,,,                           
         ,,##''                                '''############,,,,        ,,,,,,###''
      ,#''                                            '''#######################'''  
     '                                                          ''''####''''         
             ,#######,   #######,   ,#######,      ##                                
            ,#'     '#,  ##    ##  ,#'     '#,    #''#        ######   ,####,        
            ##       ##  ##   ,#'  ##            #'  '#       #        #'  '#        
            ##       ##  #######   ##           ,######,      #####,   #    #        
            '#,     ,#'  ##    ##  '#,     ,#' ,#      #,         ##   #,  ,#        
             '#######'   ##     ##  '#######'  #'      '#     #####' # '####'        



                  #######################################################
                  #                        -***-                        #
                  #          Department of theory and spectroscopy      #
                  #    Directorship and core code : Frank Neese         #
                  #        Max Planck Institute fuer Kohlenforschung    #
                  #                Kaiser Wilhelm Platz 1               #
                  #                 D-45470 Muelheim/Ruhr               #
                  #                      Germany                        #
                  #                                                     #
                  #                  All rights reserved                #
                  #                        -***-                        #
                  #######################################################


                         Program Version 5.0.3 -  RELEASE  -


 With contributions from (in alphabetic order):
   Daniel Aravena         : Magnetic Suceptibility
   Michael Atanasov       : Ab Initio Ligand Field Theory (pilot matlab implementation)
   Alexander A. Auer      : GIAO ZORA, VPT2 properties, NMR spectrum
   Ute Becker             : Parallelization
   Giovanni Bistoni       : ED, misc. LED, open-shell LED, HFLD
   Martin Brehm           : Molecular dynamics
   Dmytro Bykov           : SCF Hessian
   Vijay G. Chilkuri      : MRCI spin determinant printing, contributions to CSF-ICE
   Dipayan Datta          : RHF DLPNO-CCSD density
   Achintya Kumar Dutta   : EOM-CC, STEOM-CC
   Dmitry Ganyushin       : Spin-Orbit,Spin-Spin,Magnetic field MRCI
   Miquel Garcia          : C-PCM and meta-GGA Hessian, CC/C-PCM, Gaussian charge scheme
   Yang Guo               : DLPNO-NEVPT2, F12-NEVPT2, CIM, IAO-localization
   Andreas Hansen         : Spin unrestricted coupled pair/coupled cluster methods
   Benjamin Helmich-Paris : MC-RPA, TRAH-SCF, COSX integrals
   Lee Huntington         : MR-EOM, pCC
   Robert Izsak           : Overlap fitted RIJCOSX, COSX-SCS-MP3, EOM
   Marcus Kettner         : VPT2
   Christian Kollmar      : KDIIS, OOCD, Brueckner-CCSD(T), CCSD density, CASPT2, CASPT2-K
   Simone Kossmann        : Meta GGA functionals, TD-DFT gradient, OOMP2, MP2 Hessian
   Martin Krupicka        : Initial AUTO-CI
   Lucas Lang             : DCDCAS
   Marvin Lechner         : AUTO-CI (C++ implementation), FIC-MRCC
   Dagmar Lenk            : GEPOL surface, SMD
   Dimitrios Liakos       : Extrapolation schemes; Compound Job, initial MDCI parallelization
   Dimitrios Manganas     : Further ROCIS development; embedding schemes
   Dimitrios Pantazis     : SARC Basis sets
   Anastasios Papadopoulos: AUTO-CI, single reference methods and gradients
   Taras Petrenko         : DFT Hessian,TD-DFT gradient, ASA, ECA, R-Raman, ABS, FL, XAS/XES, NRVS
   Peter Pinski           : DLPNO-MP2, DLPNO-MP2 Gradient
   Christoph Reimann      : Effective Core Potentials
   Marius Retegan         : Local ZFS, SOC
   Christoph Riplinger    : Optimizer, TS searches, QM/MM, DLPNO-CCSD(T), (RO)-DLPNO pert. Triples
   Tobias Risthaus        : Range-separated hybrids, TD-DFT gradient, RPA, STAB
   Michael Roemelt        : Original ROCIS implementation
   Masaaki Saitow         : Open-shell DLPNO-CCSD energy and density
   Barbara Sandhoefer     : DKH picture change effects
   Avijit Sen             : IP-ROCIS
   Kantharuban Sivalingam : CASSCF convergence, NEVPT2, FIC-MRCI
   Bernardo de Souza      : ESD, SOC TD-DFT
   Georgi Stoychev        : AutoAux, RI-MP2 NMR, DLPNO-MP2 response
   Willem Van den Heuvel  : Paramagnetic NMR
   Boris Wezisla          : Elementary symmetry handling
   Frank Wennmohs         : Technical directorship


 We gratefully acknowledge several colleagues who have allowed us to
 interface, adapt or use parts of their codes:
   Stefan Grimme, W. Hujo, H. Kruse, P. Pracht,  : VdW corrections, initial TS optimization,
                  C. Bannwarth, S. Ehlert          DFT functionals, gCP, sTDA/sTD-DF
   Ed Valeev, F. Pavosevic, A. Kumar             : LibInt (2-el integral package), F12 methods
   Garnet Chan, S. Sharma, J. Yang, R. Olivares  : DMRG
   Ulf Ekstrom                                   : XCFun DFT Library
   Mihaly Kallay                                 : mrcc  (arbitrary order and MRCC methods)
   Jiri Pittner, Ondrej Demel                    : Mk-CCSD
   Frank Weinhold                                : gennbo (NPA and NBO analysis)
   Christopher J. Cramer and Donald G. Truhlar   : smd solvation model
   Lars Goerigk                                  : TD-DFT with DH, B97 family of functionals
   V. Asgeirsson, H. Jonsson                     : NEB implementation
   FAccTs GmbH                                   : IRC, NEB, NEB-TS, DLPNO-Multilevel, CI-OPT
                                                   MM, QMMM, 2- and 3-layer-ONIOM, Crystal-QMMM,
                                                   LR-CPCM, SF, NACMEs, symmetry and pop. for TD-DFT,
                                                   nearIR, NL-DFT gradient (VV10), updates on ESD,
                                                   ML-optimized integration grids
   S Lehtola, MJT Oliveira, MAL Marques          : LibXC Library
   Liviu Ungur et al                             : ANISO software


 Your calculation uses the libint2 library for the computation of 2-el integrals
 For citations please refer to: http://libint.valeyev.net

 Your ORCA version has been built with support for libXC version: 5.1.0
 For citations please refer to: https://tddft.org/programs/libxc/

 This ORCA versions uses:
   CBLAS   interface :  Fast vector & matrix operations
   LAPACKE interface :  Fast linear algebra routines
   SCALAPACK package :  Parallel linear algebra routines
   Shared memory     :  Shared parallel matrices
   BLAS/LAPACK       :  OpenBLAS 0.3.15  USE64BITINT DYNAMIC_ARCH NO_AFFINITY Haswell SINGLE_THREADED
        Core in use  :  Haswell
   Copyright (c) 2011-2014, The OpenBLAS Project


================================================================================

----- Orbital basis set information -----
Your calculation utilizes the basis: cc-pVDZ 
       H, B-Ne : Obtained from the ccRepo (grant-hill.group.shef.ac.uk/ccrepo) Feb. 2017
                 T. H. Dunning, Jr., J. Chem. Phys. 90, 1007 (1989)
            He : Obtained from the ccRepo (grant-hill.group.shef.ac.uk/ccrepo) Feb. 2017
                 D. E. Woon, T. H. Dunning, Jr., J. Chem. Phys. 100, 2975 (1994)
  Li-Be, Na-Mg : Obtained from the ccRepo (grant-hill.group.shef.ac.uk/ccrepo) Feb. 2017
                 B. P. Prascher, D. E. Woon, K. A. Peterson, T. H. Dunning, Jr., A. K. Wilson, Theor. Chem. Acc. 128, 69 (2011)
         Al-Ar : Obtained from the ccRepo (grant-hill.group.shef.ac.uk/ccrepo) Feb. 2017
                 D. E. Woon, T. H. Dunning, Jr., J. Chem. Phys. 98, 1358 (1993)
            Ca : Obtained from the Peterson Research Group Website (tyr0.chem.wsu.edu/~kipeters) Feb. 2017
                 J. Koput, K. A. Peterson, J. Phys. Chem. 106, 9595 (2002)
         Sc-Zn : Obtained from the ccRepo (grant-hill.group.shef.ac.uk/ccrepo) Feb. 2017
                 N. B. Balabanov, K. A. Peterson, J. Chem. Phys. 123, 064107 (2005)
                 N. B. Balabanov, K. A. Peterson, J. Chem. Phys. 125, 074110 (2006)
         Ga-Kr : Obtained from the ccRepo (grant-hill.group.shef.ac.uk/ccrepo) Feb. 2017
                 A. K. Wilson, D. E. Woon, K. A. Peterson, T. H. Dunning, Jr., J. Chem. Phys. 110, 7667 (1999)

----- AuxJ basis set information -----
Your calculation utilizes the auxiliary basis: def2/J
   F. Weigend, Phys. Chem. Chem. Phys. 8, 1057 (2006).

================================================================================
                                        WARNINGS
                       Please study these warnings very carefully!
================================================================================

INFO   : Checking CIS options ...

INFO   : the flag for use of the SHARK integral package has been found!

================================================================================
                                       INPUT FILE
================================================================================
NAME = acrolien.1019.com
|  1> ! B3LYP cc-pVDZ
|  2> !TightSCF
|  3> %scf
|  4>  ConvForced true
|  5>  convergence tight
|  6>  MaxIter 500
|  7> end
|  8>  
|  9> %tddft 
| 10>  nroots 1
| 11> end
| 12> 
| 13> # 	16483
| 14> * xyz 0 1
| 15> 		C   -1.257116  -0.357423   0.061397
| 16> 		O   -1.331014  -1.485195  -0.271792
| 17> 		C    0.010150   0.467778  -0.087689
| 18> 		C    1.234111   0.045741   0.079664
| 19> 		H   -2.043790   0.233375   0.457652
| 20> 		H   -0.043102   1.518879  -0.308277
| 21> 		H    1.390348  -1.053306   0.266053
| 22> 		H    2.026608   0.577251  -0.157765
| 23> *
| 24> 
| 25>                          ****END OF INPUT****
================================================================================

                       ****************************
                       * Single Point Calculation *
                       ****************************

---------------------------------
CARTESIAN COORDINATES (ANGSTROEM)
---------------------------------
  C     -1.257116   -0.357423    0.061397
  O     -1.331014   -1.485195   -0.271792
  C      0.010150    0.467778   -0.087689
  C      1.234111    0.045741    0.079664
  H     -2.043790    0.233375    0.457652
  H     -0.043102    1.518879   -0.308277
  H      1.390348   -1.053306    0.266053
  H      2.026608    0.577251   -0.157765

----------------------------
CARTESIAN COORDINATES (A.U.)
----------------------------
  NO LB      ZA    FRAG     MASS         X           Y           Z
   0 C     6.0000    0    12.011   -2.375605   -0.675432    0.116024
   1 O     8.0000    0    15.999   -2.515252   -2.806612   -0.513612
   2 C     6.0000    0    12.011    0.019181    0.883972   -0.165708
   3 C     6.0000    0    12.011    2.332132    0.086438    0.150543
   4 H     1.0000    0     1.008   -3.862203    0.441015    0.864837
   5 H     1.0000    0     1.008   -0.081451    2.870265   -0.582559
   6 H     1.0000    0     1.008    2.627377   -1.990460    0.502767
   7 H     1.0000    0     1.008    3.829734    1.090846   -0.298133

--------------------------------
INTERNAL COORDINATES (ANGSTROEM)
--------------------------------
 C      0   0   0     0.000000000000     0.00000000     0.00000000
 O      1   0   0     1.178280742484     0.00000000     0.00000000
 C      1   2   0     1.519587588970   122.97850453     0.00000000
 C      3   1   2     1.305451180818   126.42424813   322.78906479
 H      1   2   3     1.060620706994   126.31908490   177.21485217
 H      3   1   2     1.075317698845   120.63984821   145.81461717
 H      4   3   1     1.125635450623   117.84063680     5.68704663
 H      4   3   1     0.983324415008   123.36214811   170.48699514

---------------------------
INTERNAL COORDINATES (A.U.)
---------------------------
 C      0   0   0     0.000000000000     0.00000000     0.00000000
 O      1   0   0     2.226627912168     0.00000000     0.00000000
 C      1   2   0     2.871604379660   122.97850453     0.00000000
 C      3   1   2     2.466945212950   126.42424813   322.78906479
 H      1   2   3     2.004282668185   126.31908490   177.21485217
 H      3   1   2     2.032055957775   120.63984821   145.81461717
 H      4   3   1     2.127142728310   117.84063680     5.68704663
 H      4   3   1     1.858213845163   123.36214811   170.48699514

---------------------
BASIS SET INFORMATION
---------------------
There are 3 groups of distinct atoms

 Group   1 Type C   : 17s4p1d contracted to 3s2p1d pattern {881/31/1}
 Group   2 Type O   : 17s4p1d contracted to 3s2p1d pattern {881/31/1}
 Group   3 Type H   : 4s1p contracted to 2s1p pattern {31/1}

Atom   0C    basis set group =>   1
Atom   1O    basis set group =>   2
Atom   2C    basis set group =>   1
Atom   3C    basis set group =>   1
Atom   4H    basis set group =>   3
Atom   5H    basis set group =>   3
Atom   6H    basis set group =>   3
Atom   7H    basis set group =>   3
---------------------------------
AUXILIARY/J BASIS SET INFORMATION
---------------------------------
There are 3 groups of distinct atoms

 Group   1 Type C   : 12s5p4d2f1g contracted to 6s4p3d1f1g pattern {711111/2111/211/2/1}
 Group   2 Type O   : 12s5p4d2f1g contracted to 6s4p3d1f1g pattern {711111/2111/211/2/1}
 Group   3 Type H   : 5s2p1d contracted to 3s1p1d pattern {311/2/1}

Atom   0C    basis set group =>   1
Atom   1O    basis set group =>   2
Atom   2C    basis set group =>   1
Atom   3C    basis set group =>   1
Atom   4H    basis set group =>   3
Atom   5H    basis set group =>   3
Atom   6H    basis set group =>   3
Atom   7H    basis set group =>   3
------------------------------------------------------------------------------
                           ORCA GTO INTEGRAL CALCULATION
                           -- RI-GTO INTEGRALS CHOSEN --
------------------------------------------------------------------------------
------------------------------------------------------------------------------
                   ___                                                        
                  /   \      - P O W E R E D   B Y -                         
                 /     \                                                     
                 |  |  |   _    _      __       _____    __    __             
                 |  |  |  | |  | |    /  \     |  _  \  |  |  /  |          
                  \  \/   | |  | |   /    \    | | | |  |  | /  /          
                 / \  \   | |__| |  /  /\  \   | |_| |  |  |/  /          
                |  |  |   |  __  | /  /__\  \  |    /   |      \           
                |  |  |   | |  | | |   __   |  |    \   |  |\   \          
                \     /   | |  | | |  |  |  |  | |\  \  |  | \   \       
                 \___/    |_|  |_| |__|  |__|  |_| \__\ |__|  \__/        
                                                                              
                      - O R C A' S   B I G   F R I E N D -                    
                                      &                                       
                       - I N T E G R A L  F E E D E R -                       
                                                                              
 v1 FN, 2020, v2 2021                                                         
------------------------------------------------------------------------------


Reading SHARK input file acrolien.1019.SHARKINP.tmp ... ok
----------------------
SHARK INTEGRAL PACKAGE
----------------------

Number of atoms                             ...      8
Number of basis functions                   ...    100
Number of shells                            ...     60
Maximum angular momentum                    ...      2
Integral batch strategy                     ... SHARK/LIBINT Hybrid
RI-J (if used) integral strategy            ... SPLIT-RIJ (Revised 2003 algorithm where possible)
Printlevel                                  ...      1
Contraction scheme used                     ... PARTIAL GENERAL contraction
Coulomb Range Separation                    ... NOT USED
Exchange Range Separation                   ... NOT USED
Finite Nucleus Model                        ... NOT USED
Auxiliary Coulomb fitting basis             ... AVAILABLE
   # of basis functions in Aux-J            ...    240
   # of shells in Aux-J                     ...     80
   Maximum angular momentum in Aux-J        ...      4
Auxiliary J/K fitting basis                 ... NOT available
Auxiliary Correlation fitting basis         ... NOT available
Auxiliary 'external' fitting basis          ... NOT available
Integral threshold                          ...     2.500000e-11
Primitive cut-off                           ...     2.500000e-12
Primitive pair pre-selection threshold      ...     2.500000e-12

Calculating pre-screening integrals         ... done (  0.0 sec) Dimension = 60
Calculating pre-screening integrals (ORCA)  ... done (  0.5 sec) Dimension = 36
Organizing shell pair data                  ... done (  0.4 sec)
Shell pair information
Total number of shell pairs                 ...      1830
Shell pairs after pre-screening             ...      1534
Total number of primitive shell pairs       ...      2950
Primitive shell pairs kept                  ...      2305
          la=0 lb=0:    726 shell pairs
          la=1 lb=0:    502 shell pairs
          la=1 lb=1:     78 shell pairs
          la=2 lb=0:    170 shell pairs
          la=2 lb=1:     48 shell pairs
          la=2 lb=2:     10 shell pairs

Calculating one electron integrals          ... done (  0.0 sec)
Calculating RI/J V-Matrix + Cholesky decomp.... done (  1.0 sec)
Calculating Nuclear repulsion               ... done (  0.4 sec) ENN=    105.170985483557 Eh

SHARK setup successfully completed in   4.9 seconds

Maximum memory used throughout the entire GTOINT-calculation: 14.2 MB
-------------------------------------------------------------------------------
                                 ORCA SCF
-------------------------------------------------------------------------------

------------
SCF SETTINGS
------------
Hamiltonian:
 Density Functional     Method          .... DFT(GTOs)
 Exchange Functional    Exchange        .... B88
   X-Alpha parameter    XAlpha          ....  0.666667
   Becke's b parameter  XBeta           ....  0.004200
 Correlation Functional Correlation     .... LYP
 LDA part of GGA corr.  LDAOpt          .... VWN-5
 Gradients option       PostSCFGGA      .... off
 Hybrid DFT is turned on
   Fraction HF Exchange ScalHFX         ....  0.200000
   Scaling of DF-GGA-X  ScalDFX         ....  0.720000
   Scaling of DF-GGA-C  ScalDFC         ....  0.810000
   Scaling of DF-LDA-C  ScalLDAC        ....  1.000000
   Perturbative correction              ....  0.000000
   Density functional embedding theory  .... OFF
   NL short-range parameter             ....  4.800000
 RI-approximation to the Coulomb term is turned on
   Number of AuxJ basis functions       .... 240
   RIJ-COSX (HFX calculated with COS-X)).... on


General Settings:
 Integral files         IntName         .... acrolien.1019
 Hartree-Fock type      HFTyp           .... RHF
 Total Charge           Charge          ....    0
 Multiplicity           Mult            ....    1
 Number of Electrons    NEL             ....   30
 Basis Dimension        Dim             ....   76
 Nuclear Repulsion      ENuc            ....    105.1709854836 Eh

Convergence Acceleration:
 DIIS                   CNVDIIS         .... on
   Start iteration      DIISMaxIt       ....    12
   Startup error        DIISStart       ....  0.200000
   # of expansion vecs  DIISMaxEq       ....     5
   Bias factor          DIISBfac        ....   1.050
   Max. coefficient     DIISMaxC        ....  10.000
 Trust-Rad. Augm. Hess. CNVTRAH         .... auto
   Auto Start mean grad. ratio tolernc. ....  1.125000
   Auto Start start iteration           ....    20
   Auto Start num. interpolation iter.  ....    10
   Max. Number of Micro iterations      ....    16
   Max. Number of Macro iterations      .... Maxiter - #DIIS iter
   Number of Davidson start vectors     ....     2
   Converg. threshold I  (grad. norm)   ....   1.000e-05
   Converg. threshold II (energy diff.) ....   1.000e-08
   Grad. Scal. Fac. for Micro threshold ....   0.100
   Minimum threshold for Micro iter.    ....   0.010
   NR start threshold (gradient norm)   ....   0.001
   Initial trust radius                 ....   0.400
   Minimum AH scaling param. (alpha)    ....   1.000
   Maximum AH scaling param. (alpha)    .... 1000.000
   Orbital update algorithm             .... Taylor
   White noise on init. David. guess    .... on
   Maximum white noise                  ....   0.010
   Quad. conv. algorithm                .... NR
 SOSCF                  CNVSOSCF        .... on
   Start iteration      SOSCFMaxIt      ....   150
   Startup grad/error   SOSCFStart      ....  0.003300
 Level Shifting         CNVShift        .... on
   Level shift para.    LevelShift      ....    0.2500
   Turn off err/grad.   ShiftErr        ....    0.0010
 Zerner damping         CNVZerner       .... off
 Static damping         CNVDamp         .... on
   Fraction old density DampFac         ....    0.7000
   Max. Damping (<1)    DampMax         ....    0.9800
   Min. Damping (>=0)   DampMin         ....    0.0000
   Turn off err/grad.   DampErr         ....    0.1000
 Fernandez-Rico         CNVRico         .... off

SCF Procedure:
 Maximum # iterations   MaxIter         ....   500
 SCF integral mode      SCFMode         .... Direct
   Integral package                     .... SHARK and LIBINT hybrid scheme
 Reset frequency        DirectResetFreq ....    20
 Integral Threshold     Thresh          ....  2.500e-11 Eh
 Primitive CutOff       TCut            ....  2.500e-12 Eh

Convergence Tolerance:
 Convergence Check Mode ConvCheckMode   .... Total+1el-Energy
 Convergence forced     ConvForced      .... 1
 Energy Change          TolE            ....  1.000e-08 Eh
 1-El. energy change                    ....  1.000e-05 Eh
 Orbital Gradient       TolG            ....  1.000e-05
 Orbital Rotation angle TolX            ....  1.000e-05
 DIIS Error             TolErr          ....  5.000e-07


Diagonalization of the overlap matrix:
Smallest eigenvalue                        ... 3.180e-03
Time for diagonalization                   ...    0.091 sec
Threshold for overlap eigenvalues          ... 1.000e-08
Number of eigenvalues below threshold      ... 0
Time for construction of square roots      ...    0.881 sec
Total time needed                          ...    0.973 sec

Time for model grid setup =    0.276 sec

------------------------------
INITIAL GUESS: MODEL POTENTIAL
------------------------------
Loading Hartree-Fock densities                     ... done
Calculating cut-offs                               ... done
Initializing the effective Hamiltonian             ... done
Setting up the integral package (SHARK)            ... done
Starting the Coulomb interaction                   ... done (   1.2 sec)
Reading the grid                                   ... done
Mapping shells                                     ... done
Starting the XC term evaluation                    ... done (   0.1 sec)
  promolecular density results
     # of electrons  =     29.998578350
     EX              =    -24.781847231
     EC              =     -0.998475729
     EX+EC           =    -25.780322960
Transforming the Hamiltonian                       ... done (   0.0 sec)
Diagonalizing the Hamiltonian                      ... done (   0.0 sec)
Back transforming the eigenvectors                 ... done (   0.0 sec)
Now organizing SCF variables                       ... done
                      ------------------
                      INITIAL GUESS DONE (   2.2 sec)
                      ------------------
-------------------
DFT GRID GENERATION
-------------------

General Integration Accuracy     IntAcc      ... 4.388
Radial Grid Type                 RadialGrid  ... OptM3 with GC (2021)
Angular Grid (max. ang.)         AngularGrid ... 4 (Lebedev-302)
Angular grid pruning method      GridPruning ... 4 (adaptive)
Weight generation scheme         WeightScheme... Becke
Basis function cutoff            BFCut       ... 1.0000e-11
Integration weight cutoff        WCut        ... 1.0000e-14
Angular grids for H and He will be reduced by one unit
Partially contracted basis set               ... off
Rotationally invariant grid construction     ... off

Total number of grid points                  ...    37372
Total number of batches                      ...      587
Average number of points per batch           ...       63
Average number of grid points per atom       ...     4672
Time for grid setup =    1.048 sec

--------------------
COSX GRID GENERATION
--------------------

GRIDX 1
-------
General Integration Accuracy     IntAcc      ... 3.816
Radial Grid Type                 RadialGrid  ... OptM3 with GC (2021)
Angular Grid (max. ang.)         AngularGrid ... 1 (Lebedev-50)
Angular grid pruning method      GridPruning ... 4 (adaptive)
Weight generation scheme         WeightScheme... Becke
Basis function cutoff            BFCut       ... 1.0000e-11
Integration weight cutoff        WCut        ... 1.0000e-14
Angular grids for H and He will be reduced by one unit
Partially contracted basis set               ... on
Rotationally invariant grid construction     ... off

Total number of grid points                  ...     4810
Total number of batches                      ...       79
Average number of points per batch           ...       60
Average number of grid points per atom       ...      601
UseSFitting                                  ... on

GRIDX 2
-------
General Integration Accuracy     IntAcc      ... 4.020
Radial Grid Type                 RadialGrid  ... OptM3 with GC (2021)
Angular Grid (max. ang.)         AngularGrid ... 2 (Lebedev-110)
Angular grid pruning method      GridPruning ... 4 (adaptive)
Weight generation scheme         WeightScheme... Becke
Basis function cutoff            BFCut       ... 1.0000e-11
Integration weight cutoff        WCut        ... 1.0000e-14
Angular grids for H and He will be reduced by one unit
Partially contracted basis set               ... on
Rotationally invariant grid construction     ... off

Total number of grid points                  ...    10561
Total number of batches                      ...      171
Average number of points per batch           ...       61
Average number of grid points per atom       ...     1320
UseSFitting                                  ... on

GRIDX 3
-------
General Integration Accuracy     IntAcc      ... 4.338
Radial Grid Type                 RadialGrid  ... OptM3 with GC (2021)
Angular Grid (max. ang.)         AngularGrid ... 3 (Lebedev-194)
Angular grid pruning method      GridPruning ... 4 (adaptive)
Weight generation scheme         WeightScheme... Becke
Basis function cutoff            BFCut       ... 1.0000e-11
Integration weight cutoff        WCut        ... 1.0000e-14
Angular grids for H and He will be reduced by one unit
Partially contracted basis set               ... on
Rotationally invariant grid construction     ... off

Total number of grid points                  ...    23305
Total number of batches                      ...      369
Average number of points per batch           ...       63
Average number of grid points per atom       ...     2913
UseSFitting                                  ... on

Time for X-Grid setup             =    7.339 sec

 re-compute Schwartz prescreening matrix in partically contracted basis (1) ...done (   0.088 sec)
--------------
SCF ITERATIONS
--------------
ITER       Energy         Delta-E        Max-DP      RMS-DP      [F,P]     Damp
               ***  Starting incremental Fock matrix formation  ***
  0   -191.6481017669   0.000000000000 0.08688044  0.00380350  0.2393454 0.7000
  1   -191.7139222769  -0.065820509928 0.04963657  0.00247902  0.0942845 0.7000
                               ***Turning on DIIS***
  2   -191.7376124987  -0.023690221838 0.05885828  0.00361854  0.0357622 0.0000
  3   -191.7779962739  -0.040383775162 0.03313766  0.00176683  0.0444343 0.0000
  4   -191.7854063144  -0.007410040498 0.00898794  0.00053229  0.0154461 0.0000
  5   -191.7862329154  -0.000826601021 0.00311635  0.00016094  0.0035815 0.0000
                      *** Initiating the SOSCF procedure ***
                           *** Shutting down DIIS ***
                      *** Re-Reading the Fockian *** 
                      *** Removing any level shift *** 
ITER      Energy       Delta-E        Grad      Rot      Max-DP    RMS-DP
  6   -191.78626235  -0.0000294347  0.000255  0.000255  0.001577  0.000085
               *** Restarting incremental Fock matrix formation ***
  7   -191.78624567   0.0000166757  0.000235  0.000991  0.001023  0.000043
  8   -191.78624457   0.0000011090  0.000456  0.000696  0.000652  0.000025
  9   -191.78624629  -0.0000017229  0.000027  0.000062  0.000123  0.000005
 10   -191.78624627   0.0000000136  0.000043  0.000049  0.000075  0.000003
 11   -191.78624630  -0.0000000278  0.000010  0.000028  0.000036  0.000002
 12   -191.78624630   0.0000000017  0.000017  0.000018  0.000024  0.000001
                  ***Gradient check signals convergence***
              ***Rediagonalizing the Fockian in SOSCF/NRSCF***

               *****************************************************
               *                     SUCCESS                       *
               *           SCF CONVERGED AFTER  13 CYCLES          *
               *****************************************************

Old exchange energy                            =     -5.045845875 Eh
New exchange energy                            =     -5.045852437 Eh
Exchange energy change after final integration =     -0.000006562 Eh
Total energy after final integration           =   -191.786252865 Eh
Final COS-X integration done in                =     1.495 sec

----------------
TOTAL SCF ENERGY
----------------

Total Energy       :         -191.78625287 Eh           -5218.76926 eV

Components:
Nuclear Repulsion  :          105.17098548 Eh            2861.84801 eV
Electronic Energy  :         -296.95723835 Eh           -8080.61727 eV
One Electron Energy:         -467.42755795 Eh          -12719.35049 eV
Two Electron Energy:          170.47031961 Eh            4638.73323 eV
Max COSX asymmetry :            0.00000146 Eh               0.00004 eV

Virial components:
Potential Energy   :         -382.82120125 Eh          -10417.09448 eV
Kinetic Energy     :          191.03494838 Eh            5198.32522 eV
Virial Ratio       :            2.00393281


DFT components:
N(Alpha)           :       15.000002097776 electrons
N(Beta)            :       15.000002097776 electrons
N(Total)           :       30.000004195551 electrons
E(X)               :      -20.048470342616 Eh       
E(C)               :       -1.186803841154 Eh       
E(XC)              :      -21.235274183771 Eh       
DFET-embed. en.    :        0.000000000000 Eh       

---------------
SCF CONVERGENCE
---------------

  Last Energy change         ...   -2.6201e-09  Tolerance :   1.0000e-08
  Last MAX-Density change    ...    3.1086e-15  Tolerance :   1.0000e-07
  Last RMS-Density change    ...    5.2475e-17  Tolerance :   5.0000e-09
  Last Orbital Gradient      ...    3.5453e-07  Tolerance :   1.0000e-05
  Last Orbital Rotation      ...    5.7410e-07  Tolerance :   1.0000e-05

             **** THE GBW FILE WAS UPDATED (acrolien.1019.gbw) ****
             **** DENSITY acrolien.1019.scfp WAS UPDATED ****
             **** ENERGY FILE WAS UPDATED (acrolien.1019.en.tmp) ****
             **** THE GBW FILE WAS UPDATED (acrolien.1019.gbw) ****
             **** DENSITY acrolien.1019.scfp WAS UPDATED ****
----------------
ORBITAL ENERGIES
----------------

  NO   OCC          E(Eh)            E(eV) 
   0   2.0000     -19.145723      -520.9816 
   1   2.0000     -10.276559      -279.6394 
   2   2.0000     -10.193898      -277.3901 
   3   2.0000     -10.192239      -277.3449 
   4   2.0000      -1.069651       -29.1067 
   5   2.0000      -0.796439       -21.6722 
   6   2.0000      -0.660147       -17.9635 
   7   2.0000      -0.553777       -15.0690 
   8   2.0000      -0.510981       -13.9045 
   9   2.0000      -0.451605       -12.2888 
  10   2.0000      -0.448980       -12.2174 
  11   2.0000      -0.402873       -10.9627 
  12   2.0000      -0.372384       -10.1331 
  13   2.0000      -0.290284        -7.8990 
  14   2.0000      -0.259130        -7.0513 
  15   0.0000      -0.053568        -1.4577 
  16   0.0000       0.044863         1.2208 
  17   0.0000       0.081092         2.2066 
  18   0.0000       0.096913         2.6371 
  19   0.0000       0.122320         3.3285 
  20   0.0000       0.153543         4.1781 
  21   0.0000       0.253813         6.9066 
  22   0.0000       0.290922         7.9164 
  23   0.0000       0.309824         8.4307 
  24   0.0000       0.431534        11.7426 
  25   0.0000       0.451372        12.2825 
  26   0.0000       0.471479        12.8296 
  27   0.0000       0.507853        13.8194 
  28   0.0000       0.512332        13.9413 
  29   0.0000       0.557472        15.1696 
  30   0.0000       0.580178        15.7874 
  31   0.0000       0.634150        17.2561 
  32   0.0000       0.671301        18.2670 
  33   0.0000       0.674716        18.3599 
  34   0.0000       0.708206        19.2713 
  35   0.0000       0.732367        19.9287 
  36   0.0000       0.781943        21.2778 
  37   0.0000       0.821881        22.3645 
  38   0.0000       0.911672        24.8079 
  39   0.0000       0.940473        25.5916 
  40   0.0000       0.966255        26.2931 
  41   0.0000       1.032646        28.0997 
  42   0.0000       1.040567        28.3153 
  43   0.0000       1.080009        29.3885 
  44   0.0000       1.106928        30.1210 
  45   0.0000       1.123560        30.5736 
  46   0.0000       1.236033        33.6342 
  47   0.0000       1.336144        36.3583 
  48   0.0000       1.456553        39.6348 
  49   0.0000       1.486184        40.4411 
  50   0.0000       1.505845        40.9761 
  51   0.0000       1.527069        41.5537 
  52   0.0000       1.565023        42.5864 
  53   0.0000       1.631282        44.3894 
  54   0.0000       1.655698        45.0538 
  55   0.0000       1.706254        46.4295 
  56   0.0000       1.742320        47.4109 
  57   0.0000       1.774059        48.2746 
  58   0.0000       1.822157        49.5834 
  59   0.0000       1.850725        50.3608 
  60   0.0000       1.913335        52.0645 
  61   0.0000       1.997536        54.3557 
  62   0.0000       2.075024        56.4643 
  63   0.0000       2.097960        57.0884 
  64   0.0000       2.228290        60.6349 
  65   0.0000       2.320920        63.1554 
  66   0.0000       2.431760        66.1716 
  67   0.0000       2.465186        67.0811 
  68   0.0000       2.622978        71.3748 
  69   0.0000       2.692231        73.2593 
  70   0.0000       2.701119        73.5012 
  71   0.0000       2.864146        77.9374 
  72   0.0000       3.038986        82.6950 
  73   0.0000       3.110631        84.6446 
  74   0.0000       3.456020        94.0431 
  75   0.0000       3.482613        94.7667 

                    ********************************
                    * MULLIKEN POPULATION ANALYSIS *
                    ********************************

-----------------------
MULLIKEN ATOMIC CHARGES
-----------------------
   0 C :    0.211279
   1 O :   -0.156442
   2 C :   -0.138679
   3 C :    0.112335
   4 H :   -0.025649
   5 H :   -0.016663
   6 H :    0.027210
   7 H :   -0.013391
Sum of atomic charges:   -0.0000000

--------------------------------
MULLIKEN REDUCED ORBITAL CHARGES
--------------------------------
  0 C s       :     3.059019  s :     3.059019
      pz      :     0.784362  p :     2.579610
      px      :     0.928045
      py      :     0.867203
      dz2     :     0.009942  d :     0.150093
      dxz     :     0.010380
      dyz     :     0.030234
      dx2y2   :     0.030037
      dxy     :     0.069500
  1 O s       :     3.728449  s :     3.728449
      pz      :     1.303497  p :     4.407547
      px      :     1.737175
      py      :     1.366874
      dz2     :     0.002674  d :     0.020446
      dxz     :     0.000469
      dyz     :     0.006403
      dx2y2   :     0.006476
      dxy     :     0.004424
  2 C s       :     3.165017  s :     3.165017
      pz      :     0.982748  p :     2.913129
      px      :     1.013192
      py      :     0.917189
      dz2     :     0.003648  d :     0.060533
      dxz     :     0.010324
      dyz     :     0.002658
      dx2y2   :     0.024682
      dxy     :     0.019221
  3 C s       :     2.998750  s :     2.998750
      pz      :     0.930885  p :     2.841994
      px      :     0.976380
      py      :     0.934729
      dz2     :     0.000917  d :     0.046921
      dxz     :     0.009686
      dyz     :     0.001491
      dx2y2   :     0.016794
      dxy     :     0.018034
  4 H s       :     0.997695  s :     0.997695
      pz      :     0.006096  p :     0.027954
      px      :     0.013651
      py      :     0.008206
  5 H s       :     0.986670  s :     0.986670
      pz      :     0.006876  p :     0.029993
      px      :     0.004982
      py      :     0.018135
  6 H s       :     0.943826  s :     0.943826
      pz      :     0.005205  p :     0.028964
      px      :     0.005286
      py      :     0.018473
  7 H s       :     0.978154  s :     0.978154
      pz      :     0.008161  p :     0.035236
      px      :     0.016226
      py      :     0.010850


                     *******************************
                     * LOEWDIN POPULATION ANALYSIS *
                     *******************************

----------------------
LOEWDIN ATOMIC CHARGES
----------------------
   0 C :   -0.034515
   1 O :    0.041010
   2 C :   -0.069852
   3 C :    0.013315
   4 H :   -0.013716
   5 H :    0.025875
   6 H :    0.037755
   7 H :    0.000128

-------------------------------
LOEWDIN REDUCED ORBITAL CHARGES
-------------------------------
  0 C s       :     2.850288  s :     2.850288
      pz      :     0.790615  p :     2.781138
      px      :     1.001659
      py      :     0.988864
      dz2     :     0.026884  d :     0.403089
      dxz     :     0.026014
      dyz     :     0.074261
      dx2y2   :     0.081010
      dxy     :     0.194919
  1 O s       :     3.471013  s :     3.471013
      pz      :     1.290458  p :     4.451984
      px      :     1.688490
      py      :     1.473036
      dz2     :     0.004477  d :     0.035993
      dxz     :     0.000749
      dyz     :     0.009549
      dx2y2   :     0.013062
      dxy     :     0.008157
  2 C s       :     2.841986  s :     2.841986
      pz      :     0.944324  p :     3.040050
      px      :     1.079088
      py      :     1.016639
      dz2     :     0.014332  d :     0.187815
      dxz     :     0.026103
      dyz     :     0.007927
      dx2y2   :     0.076887
      dxy     :     0.062566
  3 C s       :     2.814023  s :     2.814023
      pz      :     0.905909  p :     3.012825
      px      :     1.083442
      py      :     1.023474
      dz2     :     0.010243  d :     0.159837
      dxz     :     0.025033
      dyz     :     0.004979
      dx2y2   :     0.063080
      dxy     :     0.056502
  4 H s       :     0.927037  s :     0.927037
      pz      :     0.018934  p :     0.086680
      px      :     0.041837
      py      :     0.025909
  5 H s       :     0.887938  s :     0.887938
      pz      :     0.020228  p :     0.086187
      px      :     0.017315
      py      :     0.048643
  6 H s       :     0.889239  s :     0.889239
      pz      :     0.014800  p :     0.073006
      px      :     0.013031
      py      :     0.045174
  7 H s       :     0.890129  s :     0.890129
      pz      :     0.027673  p :     0.109744
      px      :     0.046300
      py      :     0.035771


                      *****************************
                      * MAYER POPULATION ANALYSIS *
                      *****************************

  NA   - Mulliken gross atomic population
  ZA   - Total nuclear charge
  QA   - Mulliken gross atomic charge
  VA   - Mayer's total valence
  BVA  - Mayer's bonded valence
  FA   - Mayer's free valence

  ATOM       NA         ZA         QA         VA         BVA        FA
  0 C      5.7887     6.0000     0.2113     4.1892     4.1892     0.0000
  1 O      8.1564     8.0000    -0.1564     2.3739     2.3739    -0.0000
  2 C      6.1387     6.0000    -0.1387     4.0437     4.0437    -0.0000
  3 C      5.8877     6.0000     0.1123     4.0130     4.0130    -0.0000
  4 H      1.0256     1.0000    -0.0256     0.9539     0.9539    -0.0000
  5 H      1.0167     1.0000    -0.0167     0.9788     0.9788     0.0000
  6 H      0.9728     1.0000     0.0272     0.9862     0.9862    -0.0000
  7 H      1.0134     1.0000    -0.0134     0.9659     0.9659    -0.0000

  Mayer bond orders larger than 0.100000
B(  0-C ,  1-O ) :   2.2508 B(  0-C ,  2-C ) :   0.9970 B(  0-C ,  4-H ) :   0.9160 
B(  2-C ,  3-C ) :   2.0419 B(  2-C ,  5-H ) :   0.9313 B(  3-C ,  6-H ) :   0.9390 
B(  3-C ,  7-H ) :   0.9329 

-------
TIMINGS
-------

Total SCF time: 0 days 0 hours 2 min 41 sec 

Total time                  ....     161.172 sec
Sum of individual times     ....     130.363 sec  ( 80.9%)

Fock matrix formation       ....     117.605 sec  ( 73.0%)
  Split-RI-J                ....       1.064 sec  (  0.9% of F)
  Chain of spheres X        ....       8.535 sec  (  7.3% of F)
  XC integration            ....      42.494 sec  ( 36.1% of F)
    Basis function eval.    ....       1.789 sec  (  4.2% of XC)
    Density eval.           ....       0.673 sec  (  1.6% of XC)
    XC-Functional eval.     ....       0.566 sec  (  1.3% of XC)
    XC-Potential eval.      ....       0.632 sec  (  1.5% of XC)
Diagonalization             ....       0.008 sec  (  0.0%)
Density matrix formation    ....       0.001 sec  (  0.0%)
Population analysis         ....       0.023 sec  (  0.0%)
Initial guess               ....       1.957 sec  (  1.2%)
Orbital Transformation      ....       0.000 sec  (  0.0%)
Orbital Orthonormalization  ....       0.000 sec  (  0.0%)
DIIS solution               ....       0.010 sec  (  0.0%)
SOSCF solution              ....       2.097 sec  (  1.3%)
Grid generation             ....       8.663 sec  (  5.4%)

Maximum memory used throughout the entire SCF-calculation: 51.7 MB
------------------------------------------------------------------------------
                        ORCA TD-DFT/TDA CALCULATION
------------------------------------------------------------------------------

Input orbitals are from        ... acrolien.1019.gbw
CI-vector output               ... acrolien.1019.cis
Tamm-Dancoff approximation     ... operative
CIS-Integral strategy          ... AO-integrals
Integral handling              ... AO integral Direct
Max. core memory used          ... 512 MB
Reference state                ... RHF
Generation of triplets         ... off
Follow IRoot                   ... off
Number of operators            ... 1
Orbital ranges used for CIS calculation:
 Operator 0:  Orbitals   4... 14  to  15... 75
XAS localization array:
 Operator 0:  Orbitals  -1... -1

-------------------
XC-INTEGRATION GRID
-------------------

General Integration Accuracy     IntAcc      ... 3.467
Radial Grid Type                 RadialGrid  ... OptM3 with GC (2021)
Angular Grid (max. ang.)         AngularGrid ... 1 (Lebedev-50)
Angular grid pruning method      GridPruning ... 4 (adaptive)
Weight generation scheme         WeightScheme... Becke
Basis function cutoff            BFCut       ... 1.0000e-11
Integration weight cutoff        WCut        ... 1.0000e-14
Angular grids for H and He will be reduced by one unit
Partially contracted basis set               ... off
Rotationally invariant grid construction     ... off

Total number of grid points                  ...     5507
Total number of batches                      ...       91
Average number of points per batch           ...       60
Average number of grid points per atom       ...      688

---------------------
COSX-INTEGRATION GRID
---------------------

General Integration Accuracy     IntAcc      ... 3.067
Radial Grid Type                 RadialGrid  ... OptM3 with GC (2021)
Angular Grid (max. ang.)         AngularGrid ... 1 (Lebedev-50)
Angular grid pruning method      GridPruning ... 4 (adaptive)
Weight generation scheme         WeightScheme... Becke
Basis function cutoff            BFCut       ... 1.0000e-11
Integration weight cutoff        WCut        ... 1.0000e-14
Angular grids for H and He will be reduced by one unit
Partially contracted basis set               ... on
Rotationally invariant grid construction     ... off

Total number of grid points                  ...     2512
Total number of batches                      ...       45
Average number of points per batch           ...       55
Average number of grid points per atom       ...      314

---------------
TD-DFT XC SETUP
---------------

DFT calculation                         ... on
Name of the grid file                   ... acrolien.1019.grid_cis.tmp
Exchange functional (TD-DFT)            ... B88
   X-Alpha parameter    XAlpha (TD-DFT) ...  0.666667
   Becke's b parameter  XBeta (TD-DFT)  ...  0.004200
Correlation functional (TD-DFT)         ... LYP
 LDA part of GGA corr.  LDAOpt (TD-DFT) ... VWN-5
Hybrid DFT                              ... on
   Exchange mixing (TD-DFT)             ...  0.200
   GGA exch. scaling (TD-DFT)           ...  0.720
   GGA corr. scaling (TD-DFT)           ...  0.810

Building densities             ... done
Calculating rho(r) on the grid ... done
Building xc-kernel on the grid ... done
                    *** TD-DFT CALCULATION INITIALIZED ***

------------------------
DAVIDSON-DIAGONALIZATION
------------------------

Dimension of the eigenvalue problem            ...    671
Number of roots to be determined               ...      1
Maximum size of the expansion space            ...     10
Maximum number of iterations                   ...    100
Convergence tolerance for the residual         ...    2.500e-07
Convergence tolerance for the energies         ...    2.500e-07
Orthogonality tolerance                        ...    1.000e-14
Level Shift                                    ...    0.000e+00
Constructing the preconditioner                ... o.k.
Building the initial guess                     ... o.k.
Number of trial vectors determined             ...     10


                       ****Iteration    0****

   Memory handling for direct AO based CIS:
   Memory per vector needed      ...     1 MB
   Memory needed                 ...     0 MB
   Memory available              ...   512 MB
   Number of vectors per batch   ...   512
   Number of batches             ...     1
   Time for densities:            0.000
   Time for RI-J (Direct):        0.070
   Time for K (COSX):             4.162
   Time for XC-Integration:       0.100
   Time for Sigma-Completion:     0.000
   Size of expansion space: 3
   Lowest Energy          :     0.145620073592
   Maximum Energy change  :     0.145620073592 (vector 0)
   Maximum residual norm  :     0.001384561815

                       ****Iteration    1****
   Time for densities:            0.000
   Time for RI-J (Direct):        0.055
   Time for K (COSX):             1.788
   Time for XC-Integration:       0.043
   Time for Sigma-Completion:     0.000
   Size of expansion space: 4
   Lowest Energy          :     0.144081813012
   Maximum Energy change  :     0.001538260579 (vector 0)
   Maximum residual norm  :     0.000060459920

                       ****Iteration    2****
   Time for densities:            0.000
   Time for RI-J (Direct):        0.054
   Time for K (COSX):             2.343
   Time for XC-Integration:       0.043
   Time for Sigma-Completion:     0.000
   Size of expansion space: 5
   Lowest Energy          :     0.144013578582
   Maximum Energy change  :     0.000068234430 (vector 0)
   Maximum residual norm  :     0.000003359929

                       ****Iteration    3****
   Time for densities:            0.000
   Time for RI-J (Direct):        0.054
   Time for K (COSX):             0.195
   Time for XC-Integration:       0.043
   Time for Sigma-Completion:     0.000
   Size of expansion space: 6
   Lowest Energy          :     0.144010514291
   Maximum Energy change  :     0.000003064291 (vector 0)
   Maximum residual norm  :     0.000000301413

                       ****Iteration    4****
   Time for densities:            0.000
   Time for RI-J (Direct):        0.053
   Time for K (COSX):             2.635
   Time for XC-Integration:       0.042
   Time for Sigma-Completion:     0.000
   Size of expansion space: 7
   Lowest Energy          :     0.144010219398
   Maximum Energy change  :     0.000000294893 (vector 0)
   Maximum residual norm  :     0.000000047928

      *** CONVERGENCE OF RESIDUAL NORM REACHED ***

Storing the converged CI vectors               ... acrolien.1019.cis1

                 *** DAVIDSON DONE ***

Total time for solving the CIS problem:    19.481sec

------------------------------------
TD-DFT/TDA EXCITED STATES (SINGLETS)
------------------------------------

the weight of the individual excitations are printed if larger than 1.0e-02

STATE  1:  E=   0.144010 au      3.919 eV    31606.6 cm**-1 <S**2> =   0.000000
    14a ->  15a  :     0.974311 (c= -0.98707205)
    14a ->  16a  :     0.019446 (c=  0.13945013)


-----------------------------
TD-DFT/TDA-EXCITATION SPECTRA
-----------------------------

Center of mass = ( -0.6778, -0.6944, -0.1162)
Calculating the Dipole integrals                  ... done
Transforming integrals                            ... done
Calculating the Linear Momentum integrals         ... done
Transforming integrals                            ... done
Calculating angular momentum integrals            ... done
Transforming integrals                            ... done

-----------------------------------------------------------------------------
         ABSORPTION SPECTRUM VIA TRANSITION ELECTRIC DIPOLE MOMENTS
-----------------------------------------------------------------------------
State   Energy    Wavelength  fosc         T2        TX        TY        TZ  
        (cm-1)      (nm)                 (au**2)    (au)      (au)      (au) 
-----------------------------------------------------------------------------
   1   31606.6    316.4   0.000033867   0.00035  -0.01698  -0.00281  -0.00751

-----------------------------------------------------------------------------
         ABSORPTION SPECTRUM VIA TRANSITION VELOCITY DIPOLE MOMENTS
-----------------------------------------------------------------------------
State   Energy    Wavelength   fosc        P2         PX        PY        PZ  
        (cm-1)      (nm)                 (au**2)     (au)      (au)      (au) 
-----------------------------------------------------------------------------
   1   31606.6    316.4   0.001348522   0.00029  -0.00819   0.00169   0.01488

-------------------------------------------------------------------
                             CD SPECTRUM
-------------------------------------------------------------------
State  Energy     Wavelength     R         MX        MY        MZ   
       (cm-1)       (nm)     (1e40*cgs)   (au)      (au)      (au)  
-------------------------------------------------------------------
   1   31606.6    316.4      1.70070  -0.07911  -0.38580  -0.15689

-------------------------------------------------------------------
         CD SPECTRUM VIA TRANSITION VELOCITY DIPOLE MOMENTS        
-------------------------------------------------------------------
State  Energy     Wavelength     R         MX        MY        MZ   
       (cm-1)       (nm)     (1e40*cgs)   (au)      (au)      (au)  
-------------------------------------------------------------------
   1   31606.6    316.4     -7.65550  -0.07911  -0.38580  -0.15689

Total run time:       24.343 sec

           *** ORCA-CIS/TD-DFT FINISHED WITHOUT ERROR ***

Maximum memory used throughout the entire CIS-calculation: 48.6 MB

-----------------------
CIS/TD-DFT TOTAL ENERGY
-----------------------

    E(SCF)  =   -191.786252865 Eh
    DE(CIS) =      0.144010219 Eh (Root  1)
    ----------------------------- ---------
    E(tot)  =   -191.642242646 Eh


-------------------------   --------------------
FINAL SINGLE POINT ENERGY      -191.642242646033
-------------------------   --------------------


                            ***************************************
                            *     ORCA property calculations      *
                            ***************************************

                                    ---------------------
                                    Active property flags
                                    ---------------------
   (+) Dipole Moment


------------------------------------------------------------------------------
                       ORCA ELECTRIC PROPERTIES CALCULATION
------------------------------------------------------------------------------

Dipole Moment Calculation                       ... on
Quadrupole Moment Calculation                   ... off
Polarizability Calculation                      ... off
GBWName                                         ... acrolien.1019.gbw
Electron density                                ... acrolien.1019.scfp
The origin for moment calculation is the CENTER OF MASS  = (-0.677792, -0.694368 -0.116208)

-------------
DIPOLE MOMENT
-------------
                                X             Y             Z
Electronic contribution:     -2.28385      -1.74504      -0.29512
Nuclear contribution   :      2.57945       2.55968       0.46939
                        -----------------------------------------
Total Dipole Moment    :      0.29560       0.81464       0.17427
                        -----------------------------------------
Magnitude (a.u.)       :      0.88396
Magnitude (Debye)      :      2.24685



--------------------
Rotational spectrum 
--------------------
 
Rotational constants in cm-1:     0.857029     0.192573     0.160750 
Rotational constants in MHz : 25693.074097  5773.195054  4819.170043 

 Dipole components along the rotational axes: 
x,y,z [a.u.] :     0.677486    -0.560210     0.092543 
x,y,z [Debye]:     1.722033    -1.423941     0.235225 

 

Timings for individual modules:

Sum of individual times         ...      192.512 sec (=   3.209 min)
GTO integral calculation        ...        5.399 sec (=   0.090 min)   2.8 %
SCF iterations                  ...      161.200 sec (=   2.687 min)  83.7 %
CIS module                      ...       25.913 sec (=   0.432 min)  13.5 %
                             ****ORCA TERMINATED NORMALLY****
TOTAL RUN TIME: 0 days 0 hours 3 minutes 24 seconds 483 msec
