
                                 *****************
                                 * O   R   C   A *
                                 *****************

                                            #,                                       
                                            ###                                      
                                            ####                                     
                                            #####                                    
                                            ######                                   
                                           ########,                                 
                                     ,,################,,,,,                         
                               ,,#################################,,                 
                          ,,##########################################,,             
                       ,#########################################, ''#####,          
                    ,#############################################,,   '####,        
                  ,##################################################,,,,####,       
                ,###########''''           ''''###############################       
              ,#####''   ,,,,##########,,,,          '''####'''          '####       
            ,##' ,,,,###########################,,,                        '##       
           ' ,,###''''                  '''############,,,                           
         ,,##''                                '''############,,,,        ,,,,,,###''
      ,#''                                            '''#######################'''  
     '                                                          ''''####''''         
             ,#######,   #######,   ,#######,      ##                                
            ,#'     '#,  ##    ##  ,#'     '#,    #''#        ######   ,####,        
            ##       ##  ##   ,#'  ##            #'  '#       #        #'  '#        
            ##       ##  #######   ##           ,######,      #####,   #    #        
            '#,     ,#'  ##    ##  '#,     ,#' ,#      #,         ##   #,  ,#        
             '#######'   ##     ##  '#######'  #'      '#     #####' # '####'        



                  #######################################################
                  #                        -***-                        #
                  #          Department of theory and spectroscopy      #
                  #    Directorship and core code : Frank Neese         #
                  #        Max Planck Institute fuer Kohlenforschung    #
                  #                Kaiser Wilhelm Platz 1               #
                  #                 D-45470 Muelheim/Ruhr               #
                  #                      Germany                        #
                  #                                                     #
                  #                  All rights reserved                #
                  #                        -***-                        #
                  #######################################################


                         Program Version 5.0.3 -  RELEASE  -


 With contributions from (in alphabetic order):
   Daniel Aravena         : Magnetic Suceptibility
   Michael Atanasov       : Ab Initio Ligand Field Theory (pilot matlab implementation)
   Alexander A. Auer      : GIAO ZORA, VPT2 properties, NMR spectrum
   Ute Becker             : Parallelization
   Giovanni Bistoni       : ED, misc. LED, open-shell LED, HFLD
   Martin Brehm           : Molecular dynamics
   Dmytro Bykov           : SCF Hessian
   Vijay G. Chilkuri      : MRCI spin determinant printing, contributions to CSF-ICE
   Dipayan Datta          : RHF DLPNO-CCSD density
   Achintya Kumar Dutta   : EOM-CC, STEOM-CC
   Dmitry Ganyushin       : Spin-Orbit,Spin-Spin,Magnetic field MRCI
   Miquel Garcia          : C-PCM and meta-GGA Hessian, CC/C-PCM, Gaussian charge scheme
   Yang Guo               : DLPNO-NEVPT2, F12-NEVPT2, CIM, IAO-localization
   Andreas Hansen         : Spin unrestricted coupled pair/coupled cluster methods
   Benjamin Helmich-Paris : MC-RPA, TRAH-SCF, COSX integrals
   Lee Huntington         : MR-EOM, pCC
   Robert Izsak           : Overlap fitted RIJCOSX, COSX-SCS-MP3, EOM
   Marcus Kettner         : VPT2
   Christian Kollmar      : KDIIS, OOCD, Brueckner-CCSD(T), CCSD density, CASPT2, CASPT2-K
   Simone Kossmann        : Meta GGA functionals, TD-DFT gradient, OOMP2, MP2 Hessian
   Martin Krupicka        : Initial AUTO-CI
   Lucas Lang             : DCDCAS
   Marvin Lechner         : AUTO-CI (C++ implementation), FIC-MRCC
   Dagmar Lenk            : GEPOL surface, SMD
   Dimitrios Liakos       : Extrapolation schemes; Compound Job, initial MDCI parallelization
   Dimitrios Manganas     : Further ROCIS development; embedding schemes
   Dimitrios Pantazis     : SARC Basis sets
   Anastasios Papadopoulos: AUTO-CI, single reference methods and gradients
   Taras Petrenko         : DFT Hessian,TD-DFT gradient, ASA, ECA, R-Raman, ABS, FL, XAS/XES, NRVS
   Peter Pinski           : DLPNO-MP2, DLPNO-MP2 Gradient
   Christoph Reimann      : Effective Core Potentials
   Marius Retegan         : Local ZFS, SOC
   Christoph Riplinger    : Optimizer, TS searches, QM/MM, DLPNO-CCSD(T), (RO)-DLPNO pert. Triples
   Tobias Risthaus        : Range-separated hybrids, TD-DFT gradient, RPA, STAB
   Michael Roemelt        : Original ROCIS implementation
   Masaaki Saitow         : Open-shell DLPNO-CCSD energy and density
   Barbara Sandhoefer     : DKH picture change effects
   Avijit Sen             : IP-ROCIS
   Kantharuban Sivalingam : CASSCF convergence, NEVPT2, FIC-MRCI
   Bernardo de Souza      : ESD, SOC TD-DFT
   Georgi Stoychev        : AutoAux, RI-MP2 NMR, DLPNO-MP2 response
   Willem Van den Heuvel  : Paramagnetic NMR
   Boris Wezisla          : Elementary symmetry handling
   Frank Wennmohs         : Technical directorship


 We gratefully acknowledge several colleagues who have allowed us to
 interface, adapt or use parts of their codes:
   Stefan Grimme, W. Hujo, H. Kruse, P. Pracht,  : VdW corrections, initial TS optimization,
                  C. Bannwarth, S. Ehlert          DFT functionals, gCP, sTDA/sTD-DF
   Ed Valeev, F. Pavosevic, A. Kumar             : LibInt (2-el integral package), F12 methods
   Garnet Chan, S. Sharma, J. Yang, R. Olivares  : DMRG
   Ulf Ekstrom                                   : XCFun DFT Library
   Mihaly Kallay                                 : mrcc  (arbitrary order and MRCC methods)
   Jiri Pittner, Ondrej Demel                    : Mk-CCSD
   Frank Weinhold                                : gennbo (NPA and NBO analysis)
   Christopher J. Cramer and Donald G. Truhlar   : smd solvation model
   Lars Goerigk                                  : TD-DFT with DH, B97 family of functionals
   V. Asgeirsson, H. Jonsson                     : NEB implementation
   FAccTs GmbH                                   : IRC, NEB, NEB-TS, DLPNO-Multilevel, CI-OPT
                                                   MM, QMMM, 2- and 3-layer-ONIOM, Crystal-QMMM,
                                                   LR-CPCM, SF, NACMEs, symmetry and pop. for TD-DFT,
                                                   nearIR, NL-DFT gradient (VV10), updates on ESD,
                                                   ML-optimized integration grids
   S Lehtola, MJT Oliveira, MAL Marques          : LibXC Library
   Liviu Ungur et al                             : ANISO software


 Your calculation uses the libint2 library for the computation of 2-el integrals
 For citations please refer to: http://libint.valeyev.net

 Your ORCA version has been built with support for libXC version: 5.1.0
 For citations please refer to: https://tddft.org/programs/libxc/

 This ORCA versions uses:
   CBLAS   interface :  Fast vector & matrix operations
   LAPACKE interface :  Fast linear algebra routines
   SCALAPACK package :  Parallel linear algebra routines
   Shared memory     :  Shared parallel matrices
   BLAS/LAPACK       :  OpenBLAS 0.3.15  USE64BITINT DYNAMIC_ARCH NO_AFFINITY Haswell SINGLE_THREADED
        Core in use  :  Haswell
   Copyright (c) 2011-2014, The OpenBLAS Project


================================================================================

----- Orbital basis set information -----
Your calculation utilizes the basis: cc-pVDZ 
       H, B-Ne : Obtained from the ccRepo (grant-hill.group.shef.ac.uk/ccrepo) Feb. 2017
                 T. H. Dunning, Jr., J. Chem. Phys. 90, 1007 (1989)
            He : Obtained from the ccRepo (grant-hill.group.shef.ac.uk/ccrepo) Feb. 2017
                 D. E. Woon, T. H. Dunning, Jr., J. Chem. Phys. 100, 2975 (1994)
  Li-Be, Na-Mg : Obtained from the ccRepo (grant-hill.group.shef.ac.uk/ccrepo) Feb. 2017
                 B. P. Prascher, D. E. Woon, K. A. Peterson, T. H. Dunning, Jr., A. K. Wilson, Theor. Chem. Acc. 128, 69 (2011)
         Al-Ar : Obtained from the ccRepo (grant-hill.group.shef.ac.uk/ccrepo) Feb. 2017
                 D. E. Woon, T. H. Dunning, Jr., J. Chem. Phys. 98, 1358 (1993)
            Ca : Obtained from the Peterson Research Group Website (tyr0.chem.wsu.edu/~kipeters) Feb. 2017
                 J. Koput, K. A. Peterson, J. Phys. Chem. 106, 9595 (2002)
         Sc-Zn : Obtained from the ccRepo (grant-hill.group.shef.ac.uk/ccrepo) Feb. 2017
                 N. B. Balabanov, K. A. Peterson, J. Chem. Phys. 123, 064107 (2005)
                 N. B. Balabanov, K. A. Peterson, J. Chem. Phys. 125, 074110 (2006)
         Ga-Kr : Obtained from the ccRepo (grant-hill.group.shef.ac.uk/ccrepo) Feb. 2017
                 A. K. Wilson, D. E. Woon, K. A. Peterson, T. H. Dunning, Jr., J. Chem. Phys. 110, 7667 (1999)

----- AuxJ basis set information -----
Your calculation utilizes the auxiliary basis: def2/J
   F. Weigend, Phys. Chem. Chem. Phys. 8, 1057 (2006).

================================================================================
                                        WARNINGS
                       Please study these warnings very carefully!
================================================================================

INFO   : Checking CIS options ...

INFO   : the flag for use of the SHARK integral package has been found!

================================================================================
                                       INPUT FILE
================================================================================
NAME = acrolien.224.com
|  1> ! B3LYP cc-pVDZ
|  2> !TightSCF
|  3> %scf
|  4>  ConvForced true
|  5>  convergence tight
|  6>  MaxIter 500
|  7> end
|  8>  
|  9> %tddft 
| 10>  nroots 1
| 11> end
| 12> 
| 13> # 	23126
| 14> * xyz 0 1
| 15> 		C   -0.587124  -0.434443   0.001826
| 16> 		O   -0.607972  -1.653355   0.000980
| 17> 		C    0.641357   0.433411  -0.013765
| 18> 		C    1.872184  -0.119319   0.035697
| 19> 		H   -1.607291  -0.015812   0.011311
| 20> 		H    0.439139   1.473332  -0.026812
| 21> 		H    2.128216  -1.103582  -0.214326
| 22> 		H    2.703205   0.574632  -0.070870
| 23> *
| 24> 
| 25>                          ****END OF INPUT****
================================================================================

                       ****************************
                       * Single Point Calculation *
                       ****************************

---------------------------------
CARTESIAN COORDINATES (ANGSTROEM)
---------------------------------
  C     -0.587124   -0.434443    0.001826
  O     -0.607972   -1.653355    0.000980
  C      0.641357    0.433411   -0.013765
  C      1.872184   -0.119319    0.035697
  H     -1.607291   -0.015812    0.011311
  H      0.439139    1.473332   -0.026812
  H      2.128216   -1.103582   -0.214326
  H      2.703205    0.574632   -0.070870

----------------------------
CARTESIAN COORDINATES (A.U.)
----------------------------
  NO LB      ZA    FRAG     MASS         X           Y           Z
   0 C     6.0000    0    12.011   -1.109504   -0.820978    0.003451
   1 O     8.0000    0    15.999   -1.148901   -3.124388    0.001852
   2 C     6.0000    0    12.011    1.211989    0.819028   -0.026012
   3 C     6.0000    0    12.011    3.537915   -0.225480    0.067458
   4 H     1.0000    0     1.008   -3.037340   -0.029880    0.021375
   5 H     1.0000    0     1.008    0.829852    2.784194   -0.050667
   6 H     1.0000    0     1.008    4.021745   -2.085468   -0.405017
   7 H     1.0000    0     1.008    5.108317    1.085897   -0.133925

--------------------------------
INTERNAL COORDINATES (ANGSTROEM)
--------------------------------
 C      0   0   0     0.000000000000     0.00000000     0.00000000
 O      1   0   0     1.219090570288     0.00000000     0.00000000
 C      1   2   0     1.504187226364   126.21619916     0.00000000
 C      3   1   2     1.350145194515   120.52758863   356.72754085
 H      1   2   3     1.102761346473   111.33071307   179.74829756
 H      3   1   2     1.059480075308   114.23964240   179.00934425
 H      4   3   1     1.047300118744   126.78848615    20.93744916
 H      4   3   1     1.087897246219   115.57183057   174.67828359

---------------------------
INTERNAL COORDINATES (A.U.)
---------------------------
 C      0   0   0     0.000000000000     0.00000000     0.00000000
 O      1   0   0     2.303747310289     0.00000000     0.00000000
 C      1   2   0     2.842501911971   126.21619916     0.00000000
 C      3   1   2     2.551404658664   120.52758863   356.72754085
 H      1   2   3     2.083916935908   111.33071307   179.74829756
 H      3   1   2     2.002127186678   114.23964240   179.00934425
 H      4   3   1     1.979110404450   126.78848615    20.93744916
 H      4   3   1     2.055827857201   115.57183057   174.67828359

---------------------
BASIS SET INFORMATION
---------------------
There are 3 groups of distinct atoms

 Group   1 Type C   : 17s4p1d contracted to 3s2p1d pattern {881/31/1}
 Group   2 Type O   : 17s4p1d contracted to 3s2p1d pattern {881/31/1}
 Group   3 Type H   : 4s1p contracted to 2s1p pattern {31/1}

Atom   0C    basis set group =>   1
Atom   1O    basis set group =>   2
Atom   2C    basis set group =>   1
Atom   3C    basis set group =>   1
Atom   4H    basis set group =>   3
Atom   5H    basis set group =>   3
Atom   6H    basis set group =>   3
Atom   7H    basis set group =>   3
---------------------------------
AUXILIARY/J BASIS SET INFORMATION
---------------------------------
There are 3 groups of distinct atoms

 Group   1 Type C   : 12s5p4d2f1g contracted to 6s4p3d1f1g pattern {711111/2111/211/2/1}
 Group   2 Type O   : 12s5p4d2f1g contracted to 6s4p3d1f1g pattern {711111/2111/211/2/1}
 Group   3 Type H   : 5s2p1d contracted to 3s1p1d pattern {311/2/1}

Atom   0C    basis set group =>   1
Atom   1O    basis set group =>   2
Atom   2C    basis set group =>   1
Atom   3C    basis set group =>   1
Atom   4H    basis set group =>   3
Atom   5H    basis set group =>   3
Atom   6H    basis set group =>   3
Atom   7H    basis set group =>   3
------------------------------------------------------------------------------
                           ORCA GTO INTEGRAL CALCULATION
                           -- RI-GTO INTEGRALS CHOSEN --
------------------------------------------------------------------------------
------------------------------------------------------------------------------
                   ___                                                        
                  /   \      - P O W E R E D   B Y -                         
                 /     \                                                     
                 |  |  |   _    _      __       _____    __    __             
                 |  |  |  | |  | |    /  \     |  _  \  |  |  /  |          
                  \  \/   | |  | |   /    \    | | | |  |  | /  /          
                 / \  \   | |__| |  /  /\  \   | |_| |  |  |/  /          
                |  |  |   |  __  | /  /__\  \  |    /   |      \           
                |  |  |   | |  | | |   __   |  |    \   |  |\   \          
                \     /   | |  | | |  |  |  |  | |\  \  |  | \   \       
                 \___/    |_|  |_| |__|  |__|  |_| \__\ |__|  \__/        
                                                                              
                      - O R C A' S   B I G   F R I E N D -                    
                                      &                                       
                       - I N T E G R A L  F E E D E R -                       
                                                                              
 v1 FN, 2020, v2 2021                                                         
------------------------------------------------------------------------------


Reading SHARK input file acrolien.224.SHARKINP.tmp ... ok
----------------------
SHARK INTEGRAL PACKAGE
----------------------

Number of atoms                             ...      8
Number of basis functions                   ...    100
Number of shells                            ...     60
Maximum angular momentum                    ...      2
Integral batch strategy                     ... SHARK/LIBINT Hybrid
RI-J (if used) integral strategy            ... SPLIT-RIJ (Revised 2003 algorithm where possible)
Printlevel                                  ...      1
Contraction scheme used                     ... PARTIAL GENERAL contraction
Coulomb Range Separation                    ... NOT USED
Exchange Range Separation                   ... NOT USED
Finite Nucleus Model                        ... NOT USED
Auxiliary Coulomb fitting basis             ... AVAILABLE
   # of basis functions in Aux-J            ...    240
   # of shells in Aux-J                     ...     80
   Maximum angular momentum in Aux-J        ...      4
Auxiliary J/K fitting basis                 ... NOT available
Auxiliary Correlation fitting basis         ... NOT available
Auxiliary 'external' fitting basis          ... NOT available
Integral threshold                          ...     2.500000e-11
Primitive cut-off                           ...     2.500000e-12
Primitive pair pre-selection threshold      ...     2.500000e-12

Calculating pre-screening integrals         ... done (  0.0 sec) Dimension = 60
Calculating pre-screening integrals (ORCA)  ... done (  0.3 sec) Dimension = 36
Organizing shell pair data                  ... done (  0.7 sec)
Shell pair information
Total number of shell pairs                 ...      1830
Shell pairs after pre-screening             ...      1532
Total number of primitive shell pairs       ...      2950
Primitive shell pairs kept                  ...      2288
          la=0 lb=0:    725 shell pairs
          la=1 lb=0:    501 shell pairs
          la=1 lb=1:     78 shell pairs
          la=2 lb=0:    170 shell pairs
          la=2 lb=1:     48 shell pairs
          la=2 lb=2:     10 shell pairs

Calculating one electron integrals          ... done (  0.0 sec)
Calculating RI/J V-Matrix + Cholesky decomp.... done (  0.6 sec)
Calculating Nuclear repulsion               ... done (  0.2 sec) ENN=    103.799843288369 Eh

SHARK setup successfully completed in   4.2 seconds

Maximum memory used throughout the entire GTOINT-calculation: 14.2 MB
-------------------------------------------------------------------------------
                                 ORCA SCF
-------------------------------------------------------------------------------

------------
SCF SETTINGS
------------
Hamiltonian:
 Density Functional     Method          .... DFT(GTOs)
 Exchange Functional    Exchange        .... B88
   X-Alpha parameter    XAlpha          ....  0.666667
   Becke's b parameter  XBeta           ....  0.004200
 Correlation Functional Correlation     .... LYP
 LDA part of GGA corr.  LDAOpt          .... VWN-5
 Gradients option       PostSCFGGA      .... off
 Hybrid DFT is turned on
   Fraction HF Exchange ScalHFX         ....  0.200000
   Scaling of DF-GGA-X  ScalDFX         ....  0.720000
   Scaling of DF-GGA-C  ScalDFC         ....  0.810000
   Scaling of DF-LDA-C  ScalLDAC        ....  1.000000
   Perturbative correction              ....  0.000000
   Density functional embedding theory  .... OFF
   NL short-range parameter             ....  4.800000
 RI-approximation to the Coulomb term is turned on
   Number of AuxJ basis functions       .... 240
   RIJ-COSX (HFX calculated with COS-X)).... on


General Settings:
 Integral files         IntName         .... acrolien.224
 Hartree-Fock type      HFTyp           .... RHF
 Total Charge           Charge          ....    0
 Multiplicity           Mult            ....    1
 Number of Electrons    NEL             ....   30
 Basis Dimension        Dim             ....   76
 Nuclear Repulsion      ENuc            ....    103.7998432884 Eh

Convergence Acceleration:
 DIIS                   CNVDIIS         .... on
   Start iteration      DIISMaxIt       ....    12
   Startup error        DIISStart       ....  0.200000
   # of expansion vecs  DIISMaxEq       ....     5
   Bias factor          DIISBfac        ....   1.050
   Max. coefficient     DIISMaxC        ....  10.000
 Trust-Rad. Augm. Hess. CNVTRAH         .... auto
   Auto Start mean grad. ratio tolernc. ....  1.125000
   Auto Start start iteration           ....    20
   Auto Start num. interpolation iter.  ....    10
   Max. Number of Micro iterations      ....    16
   Max. Number of Macro iterations      .... Maxiter - #DIIS iter
   Number of Davidson start vectors     ....     2
   Converg. threshold I  (grad. norm)   ....   1.000e-05
   Converg. threshold II (energy diff.) ....   1.000e-08
   Grad. Scal. Fac. for Micro threshold ....   0.100
   Minimum threshold for Micro iter.    ....   0.010
   NR start threshold (gradient norm)   ....   0.001
   Initial trust radius                 ....   0.400
   Minimum AH scaling param. (alpha)    ....   1.000
   Maximum AH scaling param. (alpha)    .... 1000.000
   Orbital update algorithm             .... Taylor
   White noise on init. David. guess    .... on
   Maximum white noise                  ....   0.010
   Quad. conv. algorithm                .... NR
 SOSCF                  CNVSOSCF        .... on
   Start iteration      SOSCFMaxIt      ....   150
   Startup grad/error   SOSCFStart      ....  0.003300
 Level Shifting         CNVShift        .... on
   Level shift para.    LevelShift      ....    0.2500
   Turn off err/grad.   ShiftErr        ....    0.0010
 Zerner damping         CNVZerner       .... off
 Static damping         CNVDamp         .... on
   Fraction old density DampFac         ....    0.7000
   Max. Damping (<1)    DampMax         ....    0.9800
   Min. Damping (>=0)   DampMin         ....    0.0000
   Turn off err/grad.   DampErr         ....    0.1000
 Fernandez-Rico         CNVRico         .... off

SCF Procedure:
 Maximum # iterations   MaxIter         ....   500
 SCF integral mode      SCFMode         .... Direct
   Integral package                     .... SHARK and LIBINT hybrid scheme
 Reset frequency        DirectResetFreq ....    20
 Integral Threshold     Thresh          ....  2.500e-11 Eh
 Primitive CutOff       TCut            ....  2.500e-12 Eh

Convergence Tolerance:
 Convergence Check Mode ConvCheckMode   .... Total+1el-Energy
 Convergence forced     ConvForced      .... 1
 Energy Change          TolE            ....  1.000e-08 Eh
 1-El. energy change                    ....  1.000e-05 Eh
 Orbital Gradient       TolG            ....  1.000e-05
 Orbital Rotation angle TolX            ....  1.000e-05
 DIIS Error             TolErr          ....  5.000e-07


Diagonalization of the overlap matrix:
Smallest eigenvalue                        ... 3.207e-03
Time for diagonalization                   ...    0.001 sec
Threshold for overlap eigenvalues          ... 1.000e-08
Number of eigenvalues below threshold      ... 0
Time for construction of square roots      ...    0.358 sec
Total time needed                          ...    0.359 sec

Time for model grid setup =    0.400 sec

------------------------------
INITIAL GUESS: MODEL POTENTIAL
------------------------------
Loading Hartree-Fock densities                     ... done
Calculating cut-offs                               ... done
Initializing the effective Hamiltonian             ... done
Setting up the integral package (SHARK)            ... done
Starting the Coulomb interaction                   ... done (   1.4 sec)
Reading the grid                                   ... done
Mapping shells                                     ... done
Starting the XC term evaluation                    ... done (   0.1 sec)
  promolecular density results
     # of electrons  =     29.999897848
     EX              =    -24.741899429
     EC              =     -0.995664609
     EX+EC           =    -25.737564038
Transforming the Hamiltonian                       ... done (   0.0 sec)
Diagonalizing the Hamiltonian                      ... done (   0.0 sec)
Back transforming the eigenvectors                 ... done (   0.0 sec)
Now organizing SCF variables                       ... done
                      ------------------
                      INITIAL GUESS DONE (   2.5 sec)
                      ------------------
-------------------
DFT GRID GENERATION
-------------------

General Integration Accuracy     IntAcc      ... 4.388
Radial Grid Type                 RadialGrid  ... OptM3 with GC (2021)
Angular Grid (max. ang.)         AngularGrid ... 4 (Lebedev-302)
Angular grid pruning method      GridPruning ... 4 (adaptive)
Weight generation scheme         WeightScheme... Becke
Basis function cutoff            BFCut       ... 1.0000e-11
Integration weight cutoff        WCut        ... 1.0000e-14
Angular grids for H and He will be reduced by one unit
Partially contracted basis set               ... off
Rotationally invariant grid construction     ... off

Total number of grid points                  ...    37391
Total number of batches                      ...      588
Average number of points per batch           ...       63
Average number of grid points per atom       ...     4674
Time for grid setup =    1.152 sec

--------------------
COSX GRID GENERATION
--------------------

GRIDX 1
-------
General Integration Accuracy     IntAcc      ... 3.816
Radial Grid Type                 RadialGrid  ... OptM3 with GC (2021)
Angular Grid (max. ang.)         AngularGrid ... 1 (Lebedev-50)
Angular grid pruning method      GridPruning ... 4 (adaptive)
Weight generation scheme         WeightScheme... Becke
Basis function cutoff            BFCut       ... 1.0000e-11
Integration weight cutoff        WCut        ... 1.0000e-14
Angular grids for H and He will be reduced by one unit
Partially contracted basis set               ... on
Rotationally invariant grid construction     ... off

Total number of grid points                  ...     4802
Total number of batches                      ...       79
Average number of points per batch           ...       60
Average number of grid points per atom       ...      600
UseSFitting                                  ... on

GRIDX 2
-------
General Integration Accuracy     IntAcc      ... 4.020
Radial Grid Type                 RadialGrid  ... OptM3 with GC (2021)
Angular Grid (max. ang.)         AngularGrid ... 2 (Lebedev-110)
Angular grid pruning method      GridPruning ... 4 (adaptive)
Weight generation scheme         WeightScheme... Becke
Basis function cutoff            BFCut       ... 1.0000e-11
Integration weight cutoff        WCut        ... 1.0000e-14
Angular grids for H and He will be reduced by one unit
Partially contracted basis set               ... on
Rotationally invariant grid construction     ... off

Total number of grid points                  ...    10556
Total number of batches                      ...      169
Average number of points per batch           ...       62
Average number of grid points per atom       ...     1320
UseSFitting                                  ... on

GRIDX 3
-------
General Integration Accuracy     IntAcc      ... 4.338
Radial Grid Type                 RadialGrid  ... OptM3 with GC (2021)
Angular Grid (max. ang.)         AngularGrid ... 3 (Lebedev-194)
Angular grid pruning method      GridPruning ... 4 (adaptive)
Weight generation scheme         WeightScheme... Becke
Basis function cutoff            BFCut       ... 1.0000e-11
Integration weight cutoff        WCut        ... 1.0000e-14
Angular grids for H and He will be reduced by one unit
Partially contracted basis set               ... on
Rotationally invariant grid construction     ... off

Total number of grid points                  ...    23279
Total number of batches                      ...      368
Average number of points per batch           ...       63
Average number of grid points per atom       ...     2910
UseSFitting                                  ... on

Time for X-Grid setup             =    8.596 sec

 re-compute Schwartz prescreening matrix in partically contracted basis (1) ...done (   1.806 sec)
--------------
SCF ITERATIONS
--------------
ITER       Energy         Delta-E        Max-DP      RMS-DP      [F,P]     Damp
               ***  Starting incremental Fock matrix formation  ***
  0   -191.6665054758   0.000000000000 0.11627568  0.00449077  0.2572077 0.7000
  1   -191.7299236964  -0.063418220608 0.07063564  0.00280584  0.0978252 0.7000
                               ***Turning on DIIS***
  2   -191.7510115104  -0.021087813951 0.05919123  0.00351344  0.0319964 0.0000
  3   -191.7902098718  -0.039198361412 0.05880877  0.00216188  0.0490663 0.0000
  4   -191.7961212920  -0.005911420201 0.01081550  0.00053357  0.0244011 0.0000
                      *** Initiating the SOSCF procedure ***
                           *** Shutting down DIIS ***
                      *** Re-Reading the Fockian *** 
                      *** Removing any level shift *** 
ITER      Energy       Delta-E        Grad      Rot      Max-DP    RMS-DP
  5   -191.79711027  -0.0009889817  0.000588  0.000588  0.002781  0.000141
               *** Restarting incremental Fock matrix formation ***
  6   -191.79715145  -0.0000411748  0.000397  0.001163  0.001583  0.000093
  7   -191.79715039   0.0000010560  0.000578  0.000685  0.001556  0.000053
  8   -191.79715370  -0.0000033037  0.000130  0.000228  0.000493  0.000029
  9   -191.79715363   0.0000000617  0.000122  0.000106  0.000216  0.000011
 10   -191.79715395  -0.0000003204  0.000006  0.000018  0.000072  0.000003
 11   -191.79715396  -0.0000000018  0.000005  0.000011  0.000015  0.000001
 12   -191.79715396   0.0000000005  0.000003  0.000010  0.000018  0.000001
 13   -191.79715396   0.0000000005  0.000003  0.000005  0.000008  0.000000
                  ***Gradient check signals convergence***
              ***Rediagonalizing the Fockian in SOSCF/NRSCF***

               *****************************************************
               *                     SUCCESS                       *
               *           SCF CONVERGED AFTER  14 CYCLES          *
               *****************************************************

Old exchange energy                            =     -5.028643290 Eh
New exchange energy                            =     -5.028633421 Eh
Exchange energy change after final integration =      0.000009868 Eh
Total energy after final integration           =   -191.797144087 Eh
Final COS-X integration done in                =     1.461 sec

----------------
TOTAL SCF ENERGY
----------------

Total Energy       :         -191.79714409 Eh           -5219.06562 eV

Components:
Nuclear Repulsion  :          103.79984329 Eh            2824.53733 eV
Electronic Energy  :         -295.59698738 Eh           -8043.60296 eV
One Electron Energy:         -464.87198178 Eh          -12649.80973 eV
Two Electron Energy:          169.27499441 Eh            4606.20677 eV
Max COSX asymmetry :            0.00000179 Eh               0.00005 eV

Virial components:
Potential Energy   :         -382.47659234 Eh          -10407.71720 eV
Kinetic Energy     :          190.67944825 Eh            5188.65157 eV
Virial Ratio       :            2.00586165


DFT components:
N(Alpha)           :       15.000009123146 electrons
N(Beta)            :       15.000009123146 electrons
N(Total)           :       30.000018246291 electrons
E(X)               :      -19.989853252362 Eh       
E(C)               :       -1.183341565673 Eh       
E(XC)              :      -21.173194818034 Eh       
DFET-embed. en.    :        0.000000000000 Eh       

---------------
SCF CONVERGENCE
---------------

  Last Energy change         ...    3.7846e-10  Tolerance :   1.0000e-08
  Last MAX-Density change    ...    3.5527e-15  Tolerance :   1.0000e-07
  Last RMS-Density change    ...    7.9680e-17  Tolerance :   5.0000e-09
  Last Orbital Gradient      ...    2.7827e-07  Tolerance :   1.0000e-05
  Last Orbital Rotation      ...    4.4191e-07  Tolerance :   1.0000e-05

             **** THE GBW FILE WAS UPDATED (acrolien.224.gbw) ****
             **** DENSITY acrolien.224.scfp WAS UPDATED ****
             **** ENERGY FILE WAS UPDATED (acrolien.224.en.tmp) ****
             **** THE GBW FILE WAS UPDATED (acrolien.224.gbw) ****
             **** DENSITY acrolien.224.scfp WAS UPDATED ****
----------------
ORBITAL ENERGIES
----------------

  NO   OCC          E(Eh)            E(eV) 
   0   2.0000     -19.132990      -520.6351 
   1   2.0000     -10.271511      -279.5020 
   2   2.0000     -10.212461      -277.8952 
   3   2.0000     -10.211253      -277.8623 
   4   2.0000      -1.037960       -28.2443 
   5   2.0000      -0.793952       -21.6045 
   6   2.0000      -0.656859       -17.8741 
   7   2.0000      -0.550736       -14.9863 
   8   2.0000      -0.506963       -13.7952 
   9   2.0000      -0.453106       -12.3296 
  10   2.0000      -0.419556       -11.4167 
  11   2.0000      -0.392882       -10.6909 
  12   2.0000      -0.386037       -10.5046 
  13   2.0000      -0.288166        -7.8414 
  14   2.0000      -0.249129        -6.7791 
  15   0.0000      -0.073403        -1.9974 
  16   0.0000       0.053026         1.4429 
  17   0.0000       0.070128         1.9083 
  18   0.0000       0.098003         2.6668 
  19   0.0000       0.120728         3.2852 
  20   0.0000       0.149328         4.0634 
  21   0.0000       0.249318         6.7843 
  22   0.0000       0.281811         7.6685 
  23   0.0000       0.287198         7.8151 
  24   0.0000       0.427425        11.6308 
  25   0.0000       0.453306        12.3351 
  26   0.0000       0.458822        12.4852 
  27   0.0000       0.513075        13.9615 
  28   0.0000       0.518485        14.1087 
  29   0.0000       0.539226        14.6731 
  30   0.0000       0.567826        15.4513 
  31   0.0000       0.611660        16.6441 
  32   0.0000       0.646459        17.5910 
  33   0.0000       0.659355        17.9420 
  34   0.0000       0.699159        19.0251 
  35   0.0000       0.762743        20.7553 
  36   0.0000       0.804363        21.8878 
  37   0.0000       0.830725        22.6052 
  38   0.0000       0.892440        24.2845 
  39   0.0000       0.922195        25.0942 
  40   0.0000       0.985321        26.8119 
  41   0.0000       1.004476        27.3332 
  42   0.0000       1.017458        27.6864 
  43   0.0000       1.025004        27.8918 
  44   0.0000       1.100571        29.9481 
  45   0.0000       1.167371        31.7658 
  46   0.0000       1.191283        32.4165 
  47   0.0000       1.339349        36.4455 
  48   0.0000       1.424982        38.7757 
  49   0.0000       1.485155        40.4131 
  50   0.0000       1.521073        41.3905 
  51   0.0000       1.537090        41.8263 
  52   0.0000       1.553410        42.2704 
  53   0.0000       1.603177        43.6247 
  54   0.0000       1.638676        44.5906 
  55   0.0000       1.675071        45.5810 
  56   0.0000       1.734706        47.2038 
  57   0.0000       1.778440        48.3938 
  58   0.0000       1.796323        48.8804 
  59   0.0000       1.855747        50.4974 
  60   0.0000       1.923451        52.3398 
  61   0.0000       1.963306        53.4243 
  62   0.0000       2.014972        54.8302 
  63   0.0000       2.051149        55.8146 
  64   0.0000       2.190058        59.5945 
  65   0.0000       2.324299        63.2474 
  66   0.0000       2.347790        63.8866 
  67   0.0000       2.453171        66.7542 
  68   0.0000       2.555762        69.5458 
  69   0.0000       2.643846        71.9427 
  70   0.0000       2.693972        73.3067 
  71   0.0000       2.825559        76.8874 
  72   0.0000       2.994008        81.4711 
  73   0.0000       3.059884        83.2637 
  74   0.0000       3.401433        92.5577 
  75   0.0000       3.458949        94.1228 

                    ********************************
                    * MULLIKEN POPULATION ANALYSIS *
                    ********************************

-----------------------
MULLIKEN ATOMIC CHARGES
-----------------------
   0 C :    0.174132
   1 O :   -0.199906
   2 C :   -0.095803
   3 C :    0.094791
   4 H :   -0.023816
   5 H :   -0.010748
   6 H :    0.030922
   7 H :    0.030427
Sum of atomic charges:   -0.0000000

--------------------------------
MULLIKEN REDUCED ORBITAL CHARGES
--------------------------------
  0 C s       :     3.121806  s :     3.121806
      pz      :     0.777449  p :     2.563086
      px      :     0.902929
      py      :     0.882709
      dz2     :     0.005340  d :     0.140976
      dxz     :     0.004887
      dyz     :     0.027526
      dx2y2   :     0.036478
      dxy     :     0.066746
  1 O s       :     3.750382  s :     3.750382
      pz      :     1.259251  p :     4.431460
      px      :     1.805247
      py      :     1.366962
      dz2     :     0.002050  d :     0.018064
      dxz     :     0.000012
      dyz     :     0.005551
      dx2y2   :     0.006423
      dxy     :     0.004028
  2 C s       :     3.163274  s :     3.163274
      pz      :     0.987984  p :     2.874580
      px      :     0.962969
      py      :     0.923628
      dz2     :     0.003013  d :     0.057948
      dxz     :     0.007505
      dyz     :     0.003017
      dx2y2   :     0.022846
      dxy     :     0.021567
  3 C s       :     3.046091  s :     3.046091
      pz      :     0.887160  p :     2.815503
      px      :     0.990033
      py      :     0.938309
      dz2     :     0.000602  d :     0.043616
      dxz     :     0.007493
      dyz     :     0.002787
      dx2y2   :     0.014208
      dxy     :     0.018525
  4 H s       :     0.998850  s :     0.998850
      pz      :     0.003293  p :     0.024966
      px      :     0.017171
      py      :     0.004502
  5 H s       :     0.980837  s :     0.980837
      pz      :     0.006288  p :     0.029911
      px      :     0.004848
      py      :     0.018774
  6 H s       :     0.936811  s :     0.936811
      pz      :     0.006562  p :     0.032267
      px      :     0.006605
      py      :     0.019099
  7 H s       :     0.939504  s :     0.939504
      pz      :     0.005608  p :     0.030069
      px      :     0.013082
      py      :     0.011378


                     *******************************
                     * LOEWDIN POPULATION ANALYSIS *
                     *******************************

----------------------
LOEWDIN ATOMIC CHARGES
----------------------
   0 C :   -0.029090
   1 O :   -0.017380
   2 C :   -0.062801
   3 C :    0.034115
   4 H :   -0.005996
   5 H :    0.022450
   6 H :    0.024906
   7 H :    0.033796

-------------------------------
LOEWDIN REDUCED ORBITAL CHARGES
-------------------------------
  0 C s       :     2.879211  s :     2.879211
      pz      :     0.761137  p :     2.782264
      px      :     1.018938
      py      :     1.002189
      dz2     :     0.020659  d :     0.367615
      dxz     :     0.010694
      dyz     :     0.056014
      dx2y2   :     0.096058
      dxy     :     0.184190
  1 O s       :     3.501680  s :     3.501680
      pz      :     1.240591  p :     4.484583
      px      :     1.766864
      py      :     1.477128
      dz2     :     0.004312  d :     0.031117
      dxz     :     0.000011
      dyz     :     0.006411
      dx2y2   :     0.013296
      dxy     :     0.007087
  2 C s       :     2.846248  s :     2.846248
      pz      :     0.944345  p :     3.033958
      px      :     1.057835
      py      :     1.031779
      dz2     :     0.014025  d :     0.182596
      dxz     :     0.020005
      dyz     :     0.006601
      dx2y2   :     0.072392
      dxy     :     0.069573
  3 C s       :     2.841789  s :     2.841789
      pz      :     0.864389  p :     2.980900
      px      :     1.061061
      py      :     1.055451
      dz2     :     0.009262  d :     0.143195
      dxz     :     0.016713
      dyz     :     0.007604
      dx2y2   :     0.048630
      dxy     :     0.060986
  4 H s       :     0.929436  s :     0.929436
      pz      :     0.011235  p :     0.076560
      px      :     0.048626
      py      :     0.016699
  5 H s       :     0.888361  s :     0.888361
      pz      :     0.019567  p :     0.089189
      px      :     0.017474
      py      :     0.052147
  6 H s       :     0.881757  s :     0.881757
      pz      :     0.020806  p :     0.093338
      px      :     0.019838
      py      :     0.052694
  7 H s       :     0.884847  s :     0.884847
      pz      :     0.016868  p :     0.081356
      px      :     0.033858
      py      :     0.030630


                      *****************************
                      * MAYER POPULATION ANALYSIS *
                      *****************************

  NA   - Mulliken gross atomic population
  ZA   - Total nuclear charge
  QA   - Mulliken gross atomic charge
  VA   - Mayer's total valence
  BVA  - Mayer's bonded valence
  FA   - Mayer's free valence

  ATOM       NA         ZA         QA         VA         BVA        FA
  0 C      5.8259     6.0000     0.1741     4.1790     4.1790    -0.0000
  1 O      8.1999     8.0000    -0.1999     2.3220     2.3220     0.0000
  2 C      6.0958     6.0000    -0.0958     4.0015     4.0015    -0.0000
  3 C      5.9052     6.0000     0.0948     3.9627     3.9627    -0.0000
  4 H      1.0238     1.0000    -0.0238     0.9630     0.9630     0.0000
  5 H      1.0107     1.0000    -0.0107     0.9785     0.9785    -0.0000
  6 H      0.9691     1.0000     0.0309     0.9961     0.9961     0.0000
  7 H      0.9696     1.0000     0.0304     0.9702     0.9702    -0.0000

  Mayer bond orders larger than 0.100000
B(  0-C ,  1-O ) :   2.1841 B(  0-C ,  2-C ) :   1.0385 B(  0-C ,  4-H ) :   0.9305 
B(  2-C ,  3-C ) :   1.9554 B(  2-C ,  5-H ) :   0.9493 B(  3-C ,  6-H ) :   0.9474 
B(  3-C ,  7-H ) :   0.9447 

-------
TIMINGS
-------

Total SCF time: 0 days 0 hours 2 min 52 sec 

Total time                  ....     172.162 sec
Sum of individual times     ....     134.929 sec  ( 78.4%)

Fock matrix formation       ....     122.590 sec  ( 71.2%)
  Split-RI-J                ....       2.884 sec  (  2.4% of F)
  Chain of spheres X        ....       9.315 sec  (  7.6% of F)
  XC integration            ....      34.775 sec  ( 28.4% of F)
    Basis function eval.    ....       1.834 sec  (  5.3% of XC)
    Density eval.           ....       0.745 sec  (  2.1% of XC)
    XC-Functional eval.     ....       0.618 sec  (  1.8% of XC)
    XC-Potential eval.      ....       0.627 sec  (  1.8% of XC)
Diagonalization             ....       0.007 sec  (  0.0%)
Density matrix formation    ....       0.001 sec  (  0.0%)
Population analysis         ....       0.004 sec  (  0.0%)
Initial guess               ....       2.113 sec  (  1.2%)
Orbital Transformation      ....       0.000 sec  (  0.0%)
Orbital Orthonormalization  ....       0.000 sec  (  0.0%)
DIIS solution               ....       0.055 sec  (  0.0%)
SOSCF solution              ....       0.011 sec  (  0.0%)
Grid generation             ....      10.148 sec  (  5.9%)

Maximum memory used throughout the entire SCF-calculation: 51.7 MB
------------------------------------------------------------------------------
                        ORCA TD-DFT/TDA CALCULATION
------------------------------------------------------------------------------

Input orbitals are from        ... acrolien.224.gbw
CI-vector output               ... acrolien.224.cis
Tamm-Dancoff approximation     ... operative
CIS-Integral strategy          ... AO-integrals
Integral handling              ... AO integral Direct
Max. core memory used          ... 512 MB
Reference state                ... RHF
Generation of triplets         ... off
Follow IRoot                   ... off
Number of operators            ... 1
Orbital ranges used for CIS calculation:
 Operator 0:  Orbitals   4... 14  to  15... 75
XAS localization array:
 Operator 0:  Orbitals  -1... -1

-------------------
XC-INTEGRATION GRID
-------------------

General Integration Accuracy     IntAcc      ... 3.467
Radial Grid Type                 RadialGrid  ... OptM3 with GC (2021)
Angular Grid (max. ang.)         AngularGrid ... 1 (Lebedev-50)
Angular grid pruning method      GridPruning ... 4 (adaptive)
Weight generation scheme         WeightScheme... Becke
Basis function cutoff            BFCut       ... 1.0000e-11
Integration weight cutoff        WCut        ... 1.0000e-14
Angular grids for H and He will be reduced by one unit
Partially contracted basis set               ... off
Rotationally invariant grid construction     ... off

Total number of grid points                  ...     5488
Total number of batches                      ...       91
Average number of points per batch           ...       60
Average number of grid points per atom       ...      686

---------------------
COSX-INTEGRATION GRID
---------------------

General Integration Accuracy     IntAcc      ... 3.067
Radial Grid Type                 RadialGrid  ... OptM3 with GC (2021)
Angular Grid (max. ang.)         AngularGrid ... 1 (Lebedev-50)
Angular grid pruning method      GridPruning ... 4 (adaptive)
Weight generation scheme         WeightScheme... Becke
Basis function cutoff            BFCut       ... 1.0000e-11
Integration weight cutoff        WCut        ... 1.0000e-14
Angular grids for H and He will be reduced by one unit
Partially contracted basis set               ... on
Rotationally invariant grid construction     ... off

Total number of grid points                  ...     2506
Total number of batches                      ...       45
Average number of points per batch           ...       55
Average number of grid points per atom       ...      313

---------------
TD-DFT XC SETUP
---------------

DFT calculation                         ... on
Name of the grid file                   ... acrolien.224.grid_cis.tmp
Exchange functional (TD-DFT)            ... B88
   X-Alpha parameter    XAlpha (TD-DFT) ...  0.666667
   Becke's b parameter  XBeta (TD-DFT)  ...  0.004200
Correlation functional (TD-DFT)         ... LYP
 LDA part of GGA corr.  LDAOpt (TD-DFT) ... VWN-5
Hybrid DFT                              ... on
   Exchange mixing (TD-DFT)             ...  0.200
   GGA exch. scaling (TD-DFT)           ...  0.720
   GGA corr. scaling (TD-DFT)           ...  0.810

Building densities             ... done
Calculating rho(r) on the grid ... done
Building xc-kernel on the grid ... done
                    *** TD-DFT CALCULATION INITIALIZED ***

------------------------
DAVIDSON-DIAGONALIZATION
------------------------

Dimension of the eigenvalue problem            ...    671
Number of roots to be determined               ...      1
Maximum size of the expansion space            ...     10
Maximum number of iterations                   ...    100
Convergence tolerance for the residual         ...    2.500e-07
Convergence tolerance for the energies         ...    2.500e-07
Orthogonality tolerance                        ...    1.000e-14
Level Shift                                    ...    0.000e+00
Constructing the preconditioner                ... o.k.
Building the initial guess                     ... o.k.
Number of trial vectors determined             ...     10


                       ****Iteration    0****

   Memory handling for direct AO based CIS:
   Memory per vector needed      ...     1 MB
   Memory needed                 ...     0 MB
   Memory available              ...   512 MB
   Number of vectors per batch   ...   512
   Number of batches             ...     1
   Time for densities:            0.000
   Time for RI-J (Direct):        0.069
   Time for K (COSX):             1.883
   Time for XC-Integration:       0.078
   Time for Sigma-Completion:     0.013
   Size of expansion space: 3
   Lowest Energy          :     0.119022981077
   Maximum Energy change  :     0.119022981077 (vector 0)
   Maximum residual norm  :     0.001036344955

                       ****Iteration    1****
   Time for densities:            0.000
   Time for RI-J (Direct):        0.054
   Time for K (COSX):             0.254
   Time for XC-Integration:       0.042
   Time for Sigma-Completion:     0.000
   Size of expansion space: 4
   Lowest Energy          :     0.118054878988
   Maximum Energy change  :     0.000968102088 (vector 0)
   Maximum residual norm  :     0.000024900886

                       ****Iteration    2****
   Time for densities:            0.000
   Time for RI-J (Direct):        0.053
   Time for K (COSX):             2.166
   Time for XC-Integration:       0.042
   Time for Sigma-Completion:     0.000
   Size of expansion space: 5
   Lowest Energy          :     0.118028716669
   Maximum Energy change  :     0.000026162320 (vector 0)
   Maximum residual norm  :     0.000000874032

                       ****Iteration    3****
   Time for densities:            0.000
   Time for RI-J (Direct):        0.055
   Time for K (COSX):             1.780
   Time for XC-Integration:       0.042
   Time for Sigma-Completion:     0.000
   Size of expansion space: 6
   Lowest Energy          :     0.118027905609
   Maximum Energy change  :     0.000000811059 (vector 0)
   Maximum residual norm  :     0.000000083514

      *** CONVERGENCE OF RESIDUAL NORM REACHED ***

Storing the converged CI vectors               ... acrolien.224.cis1

                 *** DAVIDSON DONE ***

Total time for solving the CIS problem:    11.965sec

------------------------------------
TD-DFT/TDA EXCITED STATES (SINGLETS)
------------------------------------

the weight of the individual excitations are printed if larger than 1.0e-02

STATE  1:  E=   0.118028 au      3.212 eV    25904.1 cm**-1 <S**2> =   0.000000
    14a ->  15a  :     0.981560 (c= -0.99073711)
    14a ->  16a  :     0.016515 (c=  0.12850951)


-----------------------------
TD-DFT/TDA-EXCITATION SPECTRA
-----------------------------

Center of mass = (  0.5765, -0.9088, -0.0001)
Calculating the Dipole integrals                  ... done
Transforming integrals                            ... done
Calculating the Linear Momentum integrals         ... done
Transforming integrals                            ... done
Calculating angular momentum integrals            ... done
Transforming integrals                            ... done

-----------------------------------------------------------------------------
         ABSORPTION SPECTRUM VIA TRANSITION ELECTRIC DIPOLE MOMENTS
-----------------------------------------------------------------------------
State   Energy    Wavelength  fosc         T2        TX        TY        TZ  
        (cm-1)      (nm)                 (au**2)    (au)      (au)      (au) 
-----------------------------------------------------------------------------
   1   25904.1    386.0   0.000091877   0.00117   0.02271  -0.00478   0.02509

-----------------------------------------------------------------------------
         ABSORPTION SPECTRUM VIA TRANSITION VELOCITY DIPOLE MOMENTS
-----------------------------------------------------------------------------
State   Energy    Wavelength   fosc        P2         PX        PY        PZ  
        (cm-1)      (nm)                 (au**2)     (au)      (au)      (au) 
-----------------------------------------------------------------------------
   1   25904.1    386.0   0.000880039   0.00016   0.00132  -0.00031  -0.01241

-------------------------------------------------------------------
                             CD SPECTRUM
-------------------------------------------------------------------
State  Energy     Wavelength     R         MX        MY        MZ   
       (cm-1)       (nm)     (1e40*cgs)   (au)      (au)      (au)  
-------------------------------------------------------------------
   1   25904.1    386.0     -0.13286   0.07747   0.34180  -0.01627

-------------------------------------------------------------------
         CD SPECTRUM VIA TRANSITION VELOCITY DIPOLE MOMENTS        
-------------------------------------------------------------------
State  Energy     Wavelength     R         MX        MY        MZ   
       (cm-1)       (nm)     (1e40*cgs)   (au)      (au)      (au)  
-------------------------------------------------------------------
   1   25904.1    386.0      0.78763   0.07747   0.34180  -0.01627

Total run time:       20.702 sec

           *** ORCA-CIS/TD-DFT FINISHED WITHOUT ERROR ***

Maximum memory used throughout the entire CIS-calculation: 48.6 MB

-----------------------
CIS/TD-DFT TOTAL ENERGY
-----------------------

    E(SCF)  =   -191.797144087 Eh
    DE(CIS) =      0.118027906 Eh (Root  1)
    ----------------------------- ---------
    E(tot)  =   -191.679116181 Eh


-------------------------   --------------------
FINAL SINGLE POINT ENERGY      -191.679116181191
-------------------------   --------------------


                            ***************************************
                            *     ORCA property calculations      *
                            ***************************************

                                    ---------------------
                                    Active property flags
                                    ---------------------
   (+) Dipole Moment


------------------------------------------------------------------------------
                       ORCA ELECTRIC PROPERTIES CALCULATION
------------------------------------------------------------------------------

Dipole Moment Calculation                       ... on
Quadrupole Moment Calculation                   ... off
Polarizability Calculation                      ... off
GBWName                                         ... acrolien.224.gbw
Electron density                                ... acrolien.224.scfp
The origin for moment calculation is the CENTER OF MASS  = ( 0.576512, -0.908782 -0.000070)

-------------
DIPOLE MOMENT
-------------
                                X             Y             Z
Electronic contribution:     -1.86363      -1.74072       0.20403
Nuclear contribution   :      2.27843       2.65852      -0.28195
                        -----------------------------------------
Total Dipole Moment    :      0.41480       0.91781      -0.07793
                        -----------------------------------------
Magnitude (a.u.)       :      1.01020
Magnitude (Debye)      :      2.56772



--------------------
Rotational spectrum 
--------------------
 
Rotational constants in cm-1:     0.769926     0.200538     0.159309 
Rotational constants in MHz : 23081.815183  6011.984270  4775.956584 

 Dipole components along the rotational axes: 
x,y,z [a.u.] :     0.837430    -0.559590    -0.077917 
x,y,z [Debye]:     2.128577    -1.422365    -0.198050 

 

Timings for individual modules:

Sum of individual times         ...      199.982 sec (=   3.333 min)
GTO integral calculation        ...        4.221 sec (=   0.070 min)   2.1 %
SCF iterations                  ...      175.009 sec (=   2.917 min)  87.5 %
CIS module                      ...       20.751 sec (=   0.346 min)  10.4 %
                             ****ORCA TERMINATED NORMALLY****
TOTAL RUN TIME: 0 days 0 hours 3 minutes 21 seconds 518 msec
