
                                 *****************
                                 * O   R   C   A *
                                 *****************

                                            #,                                       
                                            ###                                      
                                            ####                                     
                                            #####                                    
                                            ######                                   
                                           ########,                                 
                                     ,,################,,,,,                         
                               ,,#################################,,                 
                          ,,##########################################,,             
                       ,#########################################, ''#####,          
                    ,#############################################,,   '####,        
                  ,##################################################,,,,####,       
                ,###########''''           ''''###############################       
              ,#####''   ,,,,##########,,,,          '''####'''          '####       
            ,##' ,,,,###########################,,,                        '##       
           ' ,,###''''                  '''############,,,                           
         ,,##''                                '''############,,,,        ,,,,,,###''
      ,#''                                            '''#######################'''  
     '                                                          ''''####''''         
             ,#######,   #######,   ,#######,      ##                                
            ,#'     '#,  ##    ##  ,#'     '#,    #''#        ######   ,####,        
            ##       ##  ##   ,#'  ##            #'  '#       #        #'  '#        
            ##       ##  #######   ##           ,######,      #####,   #    #        
            '#,     ,#'  ##    ##  '#,     ,#' ,#      #,         ##   #,  ,#        
             '#######'   ##     ##  '#######'  #'      '#     #####' # '####'        



                  #######################################################
                  #                        -***-                        #
                  #          Department of theory and spectroscopy      #
                  #    Directorship and core code : Frank Neese         #
                  #        Max Planck Institute fuer Kohlenforschung    #
                  #                Kaiser Wilhelm Platz 1               #
                  #                 D-45470 Muelheim/Ruhr               #
                  #                      Germany                        #
                  #                                                     #
                  #                  All rights reserved                #
                  #                        -***-                        #
                  #######################################################


                         Program Version 5.0.3 -  RELEASE  -


 With contributions from (in alphabetic order):
   Daniel Aravena         : Magnetic Suceptibility
   Michael Atanasov       : Ab Initio Ligand Field Theory (pilot matlab implementation)
   Alexander A. Auer      : GIAO ZORA, VPT2 properties, NMR spectrum
   Ute Becker             : Parallelization
   Giovanni Bistoni       : ED, misc. LED, open-shell LED, HFLD
   Martin Brehm           : Molecular dynamics
   Dmytro Bykov           : SCF Hessian
   Vijay G. Chilkuri      : MRCI spin determinant printing, contributions to CSF-ICE
   Dipayan Datta          : RHF DLPNO-CCSD density
   Achintya Kumar Dutta   : EOM-CC, STEOM-CC
   Dmitry Ganyushin       : Spin-Orbit,Spin-Spin,Magnetic field MRCI
   Miquel Garcia          : C-PCM and meta-GGA Hessian, CC/C-PCM, Gaussian charge scheme
   Yang Guo               : DLPNO-NEVPT2, F12-NEVPT2, CIM, IAO-localization
   Andreas Hansen         : Spin unrestricted coupled pair/coupled cluster methods
   Benjamin Helmich-Paris : MC-RPA, TRAH-SCF, COSX integrals
   Lee Huntington         : MR-EOM, pCC
   Robert Izsak           : Overlap fitted RIJCOSX, COSX-SCS-MP3, EOM
   Marcus Kettner         : VPT2
   Christian Kollmar      : KDIIS, OOCD, Brueckner-CCSD(T), CCSD density, CASPT2, CASPT2-K
   Simone Kossmann        : Meta GGA functionals, TD-DFT gradient, OOMP2, MP2 Hessian
   Martin Krupicka        : Initial AUTO-CI
   Lucas Lang             : DCDCAS
   Marvin Lechner         : AUTO-CI (C++ implementation), FIC-MRCC
   Dagmar Lenk            : GEPOL surface, SMD
   Dimitrios Liakos       : Extrapolation schemes; Compound Job, initial MDCI parallelization
   Dimitrios Manganas     : Further ROCIS development; embedding schemes
   Dimitrios Pantazis     : SARC Basis sets
   Anastasios Papadopoulos: AUTO-CI, single reference methods and gradients
   Taras Petrenko         : DFT Hessian,TD-DFT gradient, ASA, ECA, R-Raman, ABS, FL, XAS/XES, NRVS
   Peter Pinski           : DLPNO-MP2, DLPNO-MP2 Gradient
   Christoph Reimann      : Effective Core Potentials
   Marius Retegan         : Local ZFS, SOC
   Christoph Riplinger    : Optimizer, TS searches, QM/MM, DLPNO-CCSD(T), (RO)-DLPNO pert. Triples
   Tobias Risthaus        : Range-separated hybrids, TD-DFT gradient, RPA, STAB
   Michael Roemelt        : Original ROCIS implementation
   Masaaki Saitow         : Open-shell DLPNO-CCSD energy and density
   Barbara Sandhoefer     : DKH picture change effects
   Avijit Sen             : IP-ROCIS
   Kantharuban Sivalingam : CASSCF convergence, NEVPT2, FIC-MRCI
   Bernardo de Souza      : ESD, SOC TD-DFT
   Georgi Stoychev        : AutoAux, RI-MP2 NMR, DLPNO-MP2 response
   Willem Van den Heuvel  : Paramagnetic NMR
   Boris Wezisla          : Elementary symmetry handling
   Frank Wennmohs         : Technical directorship


 We gratefully acknowledge several colleagues who have allowed us to
 interface, adapt or use parts of their codes:
   Stefan Grimme, W. Hujo, H. Kruse, P. Pracht,  : VdW corrections, initial TS optimization,
                  C. Bannwarth, S. Ehlert          DFT functionals, gCP, sTDA/sTD-DF
   Ed Valeev, F. Pavosevic, A. Kumar             : LibInt (2-el integral package), F12 methods
   Garnet Chan, S. Sharma, J. Yang, R. Olivares  : DMRG
   Ulf Ekstrom                                   : XCFun DFT Library
   Mihaly Kallay                                 : mrcc  (arbitrary order and MRCC methods)
   Jiri Pittner, Ondrej Demel                    : Mk-CCSD
   Frank Weinhold                                : gennbo (NPA and NBO analysis)
   Christopher J. Cramer and Donald G. Truhlar   : smd solvation model
   Lars Goerigk                                  : TD-DFT with DH, B97 family of functionals
   V. Asgeirsson, H. Jonsson                     : NEB implementation
   FAccTs GmbH                                   : IRC, NEB, NEB-TS, DLPNO-Multilevel, CI-OPT
                                                   MM, QMMM, 2- and 3-layer-ONIOM, Crystal-QMMM,
                                                   LR-CPCM, SF, NACMEs, symmetry and pop. for TD-DFT,
                                                   nearIR, NL-DFT gradient (VV10), updates on ESD,
                                                   ML-optimized integration grids
   S Lehtola, MJT Oliveira, MAL Marques          : LibXC Library
   Liviu Ungur et al                             : ANISO software


 Your calculation uses the libint2 library for the computation of 2-el integrals
 For citations please refer to: http://libint.valeyev.net

 Your ORCA version has been built with support for libXC version: 5.1.0
 For citations please refer to: https://tddft.org/programs/libxc/

 This ORCA versions uses:
   CBLAS   interface :  Fast vector & matrix operations
   LAPACKE interface :  Fast linear algebra routines
   SCALAPACK package :  Parallel linear algebra routines
   Shared memory     :  Shared parallel matrices
   BLAS/LAPACK       :  OpenBLAS 0.3.15  USE64BITINT DYNAMIC_ARCH NO_AFFINITY Haswell SINGLE_THREADED
        Core in use  :  Haswell
   Copyright (c) 2011-2014, The OpenBLAS Project


================================================================================

----- Orbital basis set information -----
Your calculation utilizes the basis: cc-pVDZ 
       H, B-Ne : Obtained from the ccRepo (grant-hill.group.shef.ac.uk/ccrepo) Feb. 2017
                 T. H. Dunning, Jr., J. Chem. Phys. 90, 1007 (1989)
            He : Obtained from the ccRepo (grant-hill.group.shef.ac.uk/ccrepo) Feb. 2017
                 D. E. Woon, T. H. Dunning, Jr., J. Chem. Phys. 100, 2975 (1994)
  Li-Be, Na-Mg : Obtained from the ccRepo (grant-hill.group.shef.ac.uk/ccrepo) Feb. 2017
                 B. P. Prascher, D. E. Woon, K. A. Peterson, T. H. Dunning, Jr., A. K. Wilson, Theor. Chem. Acc. 128, 69 (2011)
         Al-Ar : Obtained from the ccRepo (grant-hill.group.shef.ac.uk/ccrepo) Feb. 2017
                 D. E. Woon, T. H. Dunning, Jr., J. Chem. Phys. 98, 1358 (1993)
            Ca : Obtained from the Peterson Research Group Website (tyr0.chem.wsu.edu/~kipeters) Feb. 2017
                 J. Koput, K. A. Peterson, J. Phys. Chem. 106, 9595 (2002)
         Sc-Zn : Obtained from the ccRepo (grant-hill.group.shef.ac.uk/ccrepo) Feb. 2017
                 N. B. Balabanov, K. A. Peterson, J. Chem. Phys. 123, 064107 (2005)
                 N. B. Balabanov, K. A. Peterson, J. Chem. Phys. 125, 074110 (2006)
         Ga-Kr : Obtained from the ccRepo (grant-hill.group.shef.ac.uk/ccrepo) Feb. 2017
                 A. K. Wilson, D. E. Woon, K. A. Peterson, T. H. Dunning, Jr., J. Chem. Phys. 110, 7667 (1999)

----- AuxJ basis set information -----
Your calculation utilizes the auxiliary basis: def2/J
   F. Weigend, Phys. Chem. Chem. Phys. 8, 1057 (2006).

================================================================================
                                        WARNINGS
                       Please study these warnings very carefully!
================================================================================

INFO   : Checking CIS options ...

INFO   : the flag for use of the SHARK integral package has been found!

================================================================================
                                       INPUT FILE
================================================================================
NAME = acrolien.316.com
|  1> ! B3LYP cc-pVDZ
|  2> !TightSCF
|  3> %scf
|  4>  ConvForced true
|  5>  convergence tight
|  6>  MaxIter 500
|  7> end
|  8>  
|  9> %tddft 
| 10>  nroots 1
| 11> end
| 12> 
| 13> # 	1266
| 14> * xyz 0 1
| 15> 		C   -1.171862  -0.351709  -0.039024
| 16> 		O   -1.400239  -1.351004  -0.619274
| 17> 		C   -0.005528   0.545365  -0.228834
| 18> 		C    1.234212   0.034764   0.114959
| 19> 		H   -1.928304  -0.056024   0.798570
| 20> 		H   -0.156977   1.616953  -0.474153
| 21> 		H    1.291202  -1.005946   0.446829
| 22> 		H    2.157884   0.626684  -0.067754
| 23> *
| 24> 
| 25>                          ****END OF INPUT****
================================================================================

                       ****************************
                       * Single Point Calculation *
                       ****************************

---------------------------------
CARTESIAN COORDINATES (ANGSTROEM)
---------------------------------
  C     -1.171862   -0.351709   -0.039024
  O     -1.400239   -1.351004   -0.619274
  C     -0.005528    0.545365   -0.228834
  C      1.234212    0.034764    0.114959
  H     -1.928304   -0.056024    0.798570
  H     -0.156977    1.616953   -0.474153
  H      1.291202   -1.005946    0.446829
  H      2.157884    0.626684   -0.067754

----------------------------
CARTESIAN COORDINATES (A.U.)
----------------------------
  NO LB      ZA    FRAG     MASS         X           Y           Z
   0 C     6.0000    0    12.011   -2.214498   -0.664634   -0.073745
   1 O     8.0000    0    15.999   -2.646068   -2.553028   -1.170258
   2 C     6.0000    0    12.011   -0.010446    1.030590   -0.432434
   3 C     6.0000    0    12.011    2.332323    0.065694    0.217241
   4 H     1.0000    0     1.008   -3.643966   -0.105870    1.509079
   5 H     1.0000    0     1.008   -0.296644    3.055598   -0.896019
   6 H     1.0000    0     1.008    2.440018   -1.900962    0.844384
   7 H     1.0000    0     1.008    4.077810    1.184261   -0.128037

--------------------------------
INTERNAL COORDINATES (ANGSTROEM)
--------------------------------
 C      0   0   0     0.000000000000     0.00000000     0.00000000
 O      1   0   0     1.177894992626     0.00000000     0.00000000
 C      1   2   0     1.483612010309   127.03994917     0.00000000
 C      3   1   2     1.384146768103   116.69861327   293.78386931
 H      1   2   3     1.166703830209   116.29273985   182.13954568
 H      3   1   2     1.109693224773   120.32364116   123.44622759
 H      4   3   1     1.093829447903   118.22934899     3.48660201
 H      4   3   1     1.112170531148   120.44621348   175.73795995

---------------------------
INTERNAL COORDINATES (A.U.)
---------------------------
 C      0   0   0     0.000000000000     0.00000000     0.00000000
 O      1   0   0     2.225898950581     0.00000000     0.00000000
 C      1   2   0     2.803620388480   127.03994917     0.00000000
 C      3   1   2     2.615658320867   116.69861327   293.78386931
 H      1   2   3     2.204750718492   116.29273985   182.13954568
 H      3   1   2     2.097016287488   120.32364116   123.44622759
 H      4   3   1     2.067038093755   118.22934899     3.48660201
 H      4   3   1     2.101697718087   120.44621348   175.73795995

---------------------
BASIS SET INFORMATION
---------------------
There are 3 groups of distinct atoms

 Group   1 Type C   : 17s4p1d contracted to 3s2p1d pattern {881/31/1}
 Group   2 Type O   : 17s4p1d contracted to 3s2p1d pattern {881/31/1}
 Group   3 Type H   : 4s1p contracted to 2s1p pattern {31/1}

Atom   0C    basis set group =>   1
Atom   1O    basis set group =>   2
Atom   2C    basis set group =>   1
Atom   3C    basis set group =>   1
Atom   4H    basis set group =>   3
Atom   5H    basis set group =>   3
Atom   6H    basis set group =>   3
Atom   7H    basis set group =>   3
---------------------------------
AUXILIARY/J BASIS SET INFORMATION
---------------------------------
There are 3 groups of distinct atoms

 Group   1 Type C   : 12s5p4d2f1g contracted to 6s4p3d1f1g pattern {711111/2111/211/2/1}
 Group   2 Type O   : 12s5p4d2f1g contracted to 6s4p3d1f1g pattern {711111/2111/211/2/1}
 Group   3 Type H   : 5s2p1d contracted to 3s1p1d pattern {311/2/1}

Atom   0C    basis set group =>   1
Atom   1O    basis set group =>   2
Atom   2C    basis set group =>   1
Atom   3C    basis set group =>   1
Atom   4H    basis set group =>   3
Atom   5H    basis set group =>   3
Atom   6H    basis set group =>   3
Atom   7H    basis set group =>   3
------------------------------------------------------------------------------
                           ORCA GTO INTEGRAL CALCULATION
                           -- RI-GTO INTEGRALS CHOSEN --
------------------------------------------------------------------------------
------------------------------------------------------------------------------
                   ___                                                        
                  /   \      - P O W E R E D   B Y -                         
                 /     \                                                     
                 |  |  |   _    _      __       _____    __    __             
                 |  |  |  | |  | |    /  \     |  _  \  |  |  /  |          
                  \  \/   | |  | |   /    \    | | | |  |  | /  /          
                 / \  \   | |__| |  /  /\  \   | |_| |  |  |/  /          
                |  |  |   |  __  | /  /__\  \  |    /   |      \           
                |  |  |   | |  | | |   __   |  |    \   |  |\   \          
                \     /   | |  | | |  |  |  |  | |\  \  |  | \   \       
                 \___/    |_|  |_| |__|  |__|  |_| \__\ |__|  \__/        
                                                                              
                      - O R C A' S   B I G   F R I E N D -                    
                                      &                                       
                       - I N T E G R A L  F E E D E R -                       
                                                                              
 v1 FN, 2020, v2 2021                                                         
------------------------------------------------------------------------------


Reading SHARK input file acrolien.316.SHARKINP.tmp ... ok
----------------------
SHARK INTEGRAL PACKAGE
----------------------

Number of atoms                             ...      8
Number of basis functions                   ...    100
Number of shells                            ...     60
Maximum angular momentum                    ...      2
Integral batch strategy                     ... SHARK/LIBINT Hybrid
RI-J (if used) integral strategy            ... SPLIT-RIJ (Revised 2003 algorithm where possible)
Printlevel                                  ...      1
Contraction scheme used                     ... PARTIAL GENERAL contraction
Coulomb Range Separation                    ... NOT USED
Exchange Range Separation                   ... NOT USED
Finite Nucleus Model                        ... NOT USED
Auxiliary Coulomb fitting basis             ... AVAILABLE
   # of basis functions in Aux-J            ...    240
   # of shells in Aux-J                     ...     80
   Maximum angular momentum in Aux-J        ...      4
Auxiliary J/K fitting basis                 ... NOT available
Auxiliary Correlation fitting basis         ... NOT available
Auxiliary 'external' fitting basis          ... NOT available
Integral threshold                          ...     2.500000e-11
Primitive cut-off                           ...     2.500000e-12
Primitive pair pre-selection threshold      ...     2.500000e-12

Calculating pre-screening integrals         ... done (  0.0 sec) Dimension = 60
Calculating pre-screening integrals (ORCA)  ... done (  0.1 sec) Dimension = 36
Organizing shell pair data                  ... done (  0.6 sec)
Shell pair information
Total number of shell pairs                 ...      1830
Shell pairs after pre-screening             ...      1534
Total number of primitive shell pairs       ...      2950
Primitive shell pairs kept                  ...      2284
          la=0 lb=0:    724 shell pairs
          la=1 lb=0:    504 shell pairs
          la=1 lb=1:     78 shell pairs
          la=2 lb=0:    170 shell pairs
          la=2 lb=1:     48 shell pairs
          la=2 lb=2:     10 shell pairs

Calculating one electron integrals          ... done (  1.2 sec)
Calculating RI/J V-Matrix + Cholesky decomp.... done (  1.0 sec)
Calculating Nuclear repulsion               ... done (  0.2 sec) ENN=    103.622319669406 Eh

SHARK setup successfully completed in   3.6 seconds

Maximum memory used throughout the entire GTOINT-calculation: 14.2 MB
-------------------------------------------------------------------------------
                                 ORCA SCF
-------------------------------------------------------------------------------

------------
SCF SETTINGS
------------
Hamiltonian:
 Density Functional     Method          .... DFT(GTOs)
 Exchange Functional    Exchange        .... B88
   X-Alpha parameter    XAlpha          ....  0.666667
   Becke's b parameter  XBeta           ....  0.004200
 Correlation Functional Correlation     .... LYP
 LDA part of GGA corr.  LDAOpt          .... VWN-5
 Gradients option       PostSCFGGA      .... off
 Hybrid DFT is turned on
   Fraction HF Exchange ScalHFX         ....  0.200000
   Scaling of DF-GGA-X  ScalDFX         ....  0.720000
   Scaling of DF-GGA-C  ScalDFC         ....  0.810000
   Scaling of DF-LDA-C  ScalLDAC        ....  1.000000
   Perturbative correction              ....  0.000000
   Density functional embedding theory  .... OFF
   NL short-range parameter             ....  4.800000
 RI-approximation to the Coulomb term is turned on
   Number of AuxJ basis functions       .... 240
   RIJ-COSX (HFX calculated with COS-X)).... on


General Settings:
 Integral files         IntName         .... acrolien.316
 Hartree-Fock type      HFTyp           .... RHF
 Total Charge           Charge          ....    0
 Multiplicity           Mult            ....    1
 Number of Electrons    NEL             ....   30
 Basis Dimension        Dim             ....   76
 Nuclear Repulsion      ENuc            ....    103.6223196694 Eh

Convergence Acceleration:
 DIIS                   CNVDIIS         .... on
   Start iteration      DIISMaxIt       ....    12
   Startup error        DIISStart       ....  0.200000
   # of expansion vecs  DIISMaxEq       ....     5
   Bias factor          DIISBfac        ....   1.050
   Max. coefficient     DIISMaxC        ....  10.000
 Trust-Rad. Augm. Hess. CNVTRAH         .... auto
   Auto Start mean grad. ratio tolernc. ....  1.125000
   Auto Start start iteration           ....    20
   Auto Start num. interpolation iter.  ....    10
   Max. Number of Micro iterations      ....    16
   Max. Number of Macro iterations      .... Maxiter - #DIIS iter
   Number of Davidson start vectors     ....     2
   Converg. threshold I  (grad. norm)   ....   1.000e-05
   Converg. threshold II (energy diff.) ....   1.000e-08
   Grad. Scal. Fac. for Micro threshold ....   0.100
   Minimum threshold for Micro iter.    ....   0.010
   NR start threshold (gradient norm)   ....   0.001
   Initial trust radius                 ....   0.400
   Minimum AH scaling param. (alpha)    ....   1.000
   Maximum AH scaling param. (alpha)    .... 1000.000
   Orbital update algorithm             .... Taylor
   White noise on init. David. guess    .... on
   Maximum white noise                  ....   0.010
   Quad. conv. algorithm                .... NR
 SOSCF                  CNVSOSCF        .... on
   Start iteration      SOSCFMaxIt      ....   150
   Startup grad/error   SOSCFStart      ....  0.003300
 Level Shifting         CNVShift        .... on
   Level shift para.    LevelShift      ....    0.2500
   Turn off err/grad.   ShiftErr        ....    0.0010
 Zerner damping         CNVZerner       .... off
 Static damping         CNVDamp         .... on
   Fraction old density DampFac         ....    0.7000
   Max. Damping (<1)    DampMax         ....    0.9800
   Min. Damping (>=0)   DampMin         ....    0.0000
   Turn off err/grad.   DampErr         ....    0.1000
 Fernandez-Rico         CNVRico         .... off

SCF Procedure:
 Maximum # iterations   MaxIter         ....   500
 SCF integral mode      SCFMode         .... Direct
   Integral package                     .... SHARK and LIBINT hybrid scheme
 Reset frequency        DirectResetFreq ....    20
 Integral Threshold     Thresh          ....  2.500e-11 Eh
 Primitive CutOff       TCut            ....  2.500e-12 Eh

Convergence Tolerance:
 Convergence Check Mode ConvCheckMode   .... Total+1el-Energy
 Convergence forced     ConvForced      .... 1
 Energy Change          TolE            ....  1.000e-08 Eh
 1-El. energy change                    ....  1.000e-05 Eh
 Orbital Gradient       TolG            ....  1.000e-05
 Orbital Rotation angle TolX            ....  1.000e-05
 DIIS Error             TolErr          ....  5.000e-07


Diagonalization of the overlap matrix:
Smallest eigenvalue                        ... 3.721e-03
Time for diagonalization                   ...    0.002 sec
Threshold for overlap eigenvalues          ... 1.000e-08
Number of eigenvalues below threshold      ... 0
Time for construction of square roots      ...    0.416 sec
Total time needed                          ...    0.418 sec

Time for model grid setup =    0.065 sec

------------------------------
INITIAL GUESS: MODEL POTENTIAL
------------------------------
Loading Hartree-Fock densities                     ... done
Calculating cut-offs                               ... done
Initializing the effective Hamiltonian             ... done
Setting up the integral package (SHARK)            ... done
Starting the Coulomb interaction                   ... done (   0.0 sec)
Reading the grid                                   ... done
Mapping shells                                     ... done
Starting the XC term evaluation                    ... done (   0.1 sec)
  promolecular density results
     # of electrons  =     29.998114936
     EX              =    -24.726661176
     EC              =     -0.994230366
     EX+EC           =    -25.720891542
Transforming the Hamiltonian                       ... done (   0.0 sec)
Diagonalizing the Hamiltonian                      ... done (   0.0 sec)
Back transforming the eigenvectors                 ... done (   0.0 sec)
Now organizing SCF variables                       ... done
                      ------------------
                      INITIAL GUESS DONE (   0.2 sec)
                      ------------------
-------------------
DFT GRID GENERATION
-------------------

General Integration Accuracy     IntAcc      ... 4.388
Radial Grid Type                 RadialGrid  ... OptM3 with GC (2021)
Angular Grid (max. ang.)         AngularGrid ... 4 (Lebedev-302)
Angular grid pruning method      GridPruning ... 4 (adaptive)
Weight generation scheme         WeightScheme... Becke
Basis function cutoff            BFCut       ... 1.0000e-11
Integration weight cutoff        WCut        ... 1.0000e-14
Angular grids for H and He will be reduced by one unit
Partially contracted basis set               ... off
Rotationally invariant grid construction     ... off

Total number of grid points                  ...    37410
Total number of batches                      ...      587
Average number of points per batch           ...       63
Average number of grid points per atom       ...     4676
Time for grid setup =    0.657 sec

--------------------
COSX GRID GENERATION
--------------------

GRIDX 1
-------
General Integration Accuracy     IntAcc      ... 3.816
Radial Grid Type                 RadialGrid  ... OptM3 with GC (2021)
Angular Grid (max. ang.)         AngularGrid ... 1 (Lebedev-50)
Angular grid pruning method      GridPruning ... 4 (adaptive)
Weight generation scheme         WeightScheme... Becke
Basis function cutoff            BFCut       ... 1.0000e-11
Integration weight cutoff        WCut        ... 1.0000e-14
Angular grids for H and He will be reduced by one unit
Partially contracted basis set               ... on
Rotationally invariant grid construction     ... off

Total number of grid points                  ...     4806
Total number of batches                      ...       79
Average number of points per batch           ...       60
Average number of grid points per atom       ...      601
UseSFitting                                  ... on

GRIDX 2
-------
General Integration Accuracy     IntAcc      ... 4.020
Radial Grid Type                 RadialGrid  ... OptM3 with GC (2021)
Angular Grid (max. ang.)         AngularGrid ... 2 (Lebedev-110)
Angular grid pruning method      GridPruning ... 4 (adaptive)
Weight generation scheme         WeightScheme... Becke
Basis function cutoff            BFCut       ... 1.0000e-11
Integration weight cutoff        WCut        ... 1.0000e-14
Angular grids for H and He will be reduced by one unit
Partially contracted basis set               ... on
Rotationally invariant grid construction     ... off

Total number of grid points                  ...    10573
Total number of batches                      ...      168
Average number of points per batch           ...       62
Average number of grid points per atom       ...     1322
UseSFitting                                  ... on

GRIDX 3
-------
General Integration Accuracy     IntAcc      ... 4.338
Radial Grid Type                 RadialGrid  ... OptM3 with GC (2021)
Angular Grid (max. ang.)         AngularGrid ... 3 (Lebedev-194)
Angular grid pruning method      GridPruning ... 4 (adaptive)
Weight generation scheme         WeightScheme... Becke
Basis function cutoff            BFCut       ... 1.0000e-11
Integration weight cutoff        WCut        ... 1.0000e-14
Angular grids for H and He will be reduced by one unit
Partially contracted basis set               ... on
Rotationally invariant grid construction     ... off

Total number of grid points                  ...    23323
Total number of batches                      ...      368
Average number of points per batch           ...       63
Average number of grid points per atom       ...     2915
UseSFitting                                  ... on

Time for X-Grid setup             =    6.786 sec

 re-compute Schwartz prescreening matrix in partically contracted basis (1) ...done (   0.984 sec)
--------------
SCF ITERATIONS
--------------
ITER       Energy         Delta-E        Max-DP      RMS-DP      [F,P]     Damp
               ***  Starting incremental Fock matrix formation  ***
  0   -191.6684510113   0.000000000000 0.08568988  0.00370523  0.2461561 0.7000
  1   -191.7292849684  -0.060833957034 0.04492879  0.00237968  0.0903630 0.7000
                               ***Turning on DIIS***
  2   -191.7498477779  -0.020562809489 0.05473997  0.00330698  0.0303077 0.0000
  3   -191.7865279565  -0.036680178588 0.03176574  0.00174252  0.0451452 0.0000
  4   -191.7928839655  -0.006356009032 0.00839734  0.00051721  0.0151327 0.0000
                      *** Initiating the SOSCF procedure ***
                           *** Shutting down DIIS ***
                      *** Re-Reading the Fockian *** 
                      *** Removing any level shift *** 
ITER      Energy       Delta-E        Grad      Rot      Max-DP    RMS-DP
  5   -191.79371951  -0.0008355445  0.000659  0.000659  0.003832  0.000146
               *** Restarting incremental Fock matrix formation ***
  6   -191.79372036  -0.0000008457  0.000275  0.000660  0.002363  0.000098
  7   -191.79372105  -0.0000006965  0.000313  0.000409  0.000686  0.000037
  8   -191.79372274  -0.0000016866  0.000154  0.000220  0.000623  0.000029
  9   -191.79372273   0.0000000088  0.000131  0.000108  0.000206  0.000011
 10   -191.79372307  -0.0000003405  0.000012  0.000046  0.000101  0.000004
 11   -191.79372307  -0.0000000007  0.000021  0.000035  0.000036  0.000001
 12   -191.79372308  -0.0000000039  0.000004  0.000007  0.000031  0.000001
                  ***Gradient check signals convergence***
              ***Rediagonalizing the Fockian in SOSCF/NRSCF***

               *****************************************************
               *                     SUCCESS                       *
               *           SCF CONVERGED AFTER  13 CYCLES          *
               *****************************************************

Old exchange energy                            =     -5.019931123 Eh
New exchange energy                            =     -5.019914196 Eh
Exchange energy change after final integration =      0.000016927 Eh
Total energy after final integration           =   -191.793706148 Eh
Final COS-X integration done in                =     1.474 sec

----------------
TOTAL SCF ENERGY
----------------

Total Energy       :         -191.79370615 Eh           -5218.97207 eV

Components:
Nuclear Repulsion  :          103.62231967 Eh            2819.70667 eV
Electronic Energy  :         -295.41602582 Eh           -8038.67874 eV
One Electron Energy:         -464.43611282 Eh          -12637.94913 eV
Two Electron Energy:          169.02008700 Eh            4599.27039 eV
Max COSX asymmetry :            0.00000235 Eh               0.00006 eV

Virial components:
Potential Energy   :         -382.32889978 Eh          -10403.69828 eV
Kinetic Energy     :          190.53519364 Eh            5184.72621 eV
Virial Ratio       :            2.00660514


DFT components:
N(Alpha)           :       15.000003314571 electrons
N(Beta)            :       15.000003314571 electrons
N(Total)           :       30.000006629143 electrons
E(X)               :      -19.956285104103 Eh       
E(C)               :       -1.181322886730 Eh       
E(XC)              :      -21.137607990833 Eh       
DFET-embed. en.    :        0.000000000000 Eh       

---------------
SCF CONVERGENCE
---------------

  Last Energy change         ...    2.6949e-10  Tolerance :   1.0000e-08
  Last MAX-Density change    ...    2.2204e-15  Tolerance :   1.0000e-07
  Last RMS-Density change    ...    5.5615e-17  Tolerance :   5.0000e-09
  Last Orbital Gradient      ...    1.9504e-06  Tolerance :   1.0000e-05
  Last Orbital Rotation      ...    3.1502e-06  Tolerance :   1.0000e-05

             **** THE GBW FILE WAS UPDATED (acrolien.316.gbw) ****
             **** DENSITY acrolien.316.scfp WAS UPDATED ****
             **** ENERGY FILE WAS UPDATED (acrolien.316.en.tmp) ****
             **** THE GBW FILE WAS UPDATED (acrolien.316.gbw) ****
             **** DENSITY acrolien.316.scfp WAS UPDATED ****
----------------
ORBITAL ENERGIES
----------------

  NO   OCC          E(Eh)            E(eV) 
   0   2.0000     -19.142953      -520.9062 
   1   2.0000     -10.280358      -279.7428 
   2   2.0000     -10.217045      -278.0199 
   3   2.0000     -10.214891      -277.9613 
   4   2.0000      -1.068910       -29.0865 
   5   2.0000      -0.788182       -21.4475 
   6   2.0000      -0.644749       -17.5445 
   7   2.0000      -0.544511       -14.8169 
   8   2.0000      -0.501215       -13.6387 
   9   2.0000      -0.449457       -12.2303 
  10   2.0000      -0.442641       -12.0449 
  11   2.0000      -0.397051       -10.8043 
  12   2.0000      -0.386356       -10.5133 
  13   2.0000      -0.281600        -7.6627 
  14   2.0000      -0.253265        -6.8917 
  15   0.0000      -0.044035        -1.1983 
  16   0.0000       0.002247         0.0612 
  17   0.0000       0.077646         2.1129 
  18   0.0000       0.090214         2.4548 
  19   0.0000       0.102254         2.7825 
  20   0.0000       0.138102         3.7579 
  21   0.0000       0.257219         6.9993 
  22   0.0000       0.280375         7.6294 
  23   0.0000       0.294510         8.0140 
  24   0.0000       0.438176        11.9234 
  25   0.0000       0.440381        11.9834 
  26   0.0000       0.468379        12.7452 
  27   0.0000       0.493883        13.4392 
  28   0.0000       0.512141        13.9361 
  29   0.0000       0.539484        14.6801 
  30   0.0000       0.559311        15.2196 
  31   0.0000       0.589089        16.0299 
  32   0.0000       0.639634        17.4053 
  33   0.0000       0.649965        17.6865 
  34   0.0000       0.672784        18.3074 
  35   0.0000       0.693326        18.8664 
  36   0.0000       0.768450        20.9106 
  37   0.0000       0.814868        22.1737 
  38   0.0000       0.894373        24.3371 
  39   0.0000       0.940451        25.5910 
  40   0.0000       0.961771        26.1711 
  41   0.0000       0.989857        26.9354 
  42   0.0000       1.016584        27.6627 
  43   0.0000       1.062457        28.9109 
  44   0.0000       1.116049        30.3692 
  45   0.0000       1.146889        31.2084 
  46   0.0000       1.225436        33.3458 
  47   0.0000       1.365267        37.1508 
  48   0.0000       1.417011        38.5588 
  49   0.0000       1.436314        39.0841 
  50   0.0000       1.472176        40.0600 
  51   0.0000       1.525909        41.5221 
  52   0.0000       1.560213        42.4556 
  53   0.0000       1.567719        42.6598 
  54   0.0000       1.609302        43.7913 
  55   0.0000       1.666891        45.3584 
  56   0.0000       1.696189        46.1556 
  57   0.0000       1.731701        47.1220 
  58   0.0000       1.754881        47.7527 
  59   0.0000       1.824086        49.6359 
  60   0.0000       1.876228        51.0548 
  61   0.0000       1.928367        52.4735 
  62   0.0000       2.013150        54.7806 
  63   0.0000       2.074677        56.4548 
  64   0.0000       2.145736        58.3885 
  65   0.0000       2.220863        60.4328 
  66   0.0000       2.228060        60.6286 
  67   0.0000       2.352303        64.0094 
  68   0.0000       2.475536        67.3628 
  69   0.0000       2.634480        71.6878 
  70   0.0000       2.674068        72.7651 
  71   0.0000       2.798900        76.1619 
  72   0.0000       2.882221        78.4292 
  73   0.0000       3.108429        84.5847 
  74   0.0000       3.343898        90.9921 
  75   0.0000       3.478348        94.6507 

                    ********************************
                    * MULLIKEN POPULATION ANALYSIS *
                    ********************************

-----------------------
MULLIKEN ATOMIC CHARGES
-----------------------
   0 C :    0.148564
   1 O :   -0.152702
   2 C :   -0.090060
   3 C :    0.014788
   4 H :   -0.022224
   5 H :    0.022497
   6 H :    0.036173
   7 H :    0.042963
Sum of atomic charges:    0.0000000

--------------------------------
MULLIKEN REDUCED ORBITAL CHARGES
--------------------------------
  0 C s       :     3.123140  s :     3.123140
      pz      :     0.841907  p :     2.578042
      px      :     0.877030
      py      :     0.859105
      dz2     :     0.026313  d :     0.150253
      dxz     :     0.021327
      dyz     :     0.028853
      dx2y2   :     0.028153
      dxy     :     0.045607
  1 O s       :     3.730149  s :     3.730149
      pz      :     1.450794  p :     4.402138
      px      :     1.604134
      py      :     1.347210
      dz2     :     0.003280  d :     0.020415
      dxz     :     0.001805
      dyz     :     0.006163
      dx2y2   :     0.005153
      dxy     :     0.004014
  2 C s       :     3.177545  s :     3.177545
      pz      :     0.984719  p :     2.857081
      px      :     0.956729
      py      :     0.915632
      dz2     :     0.004346  d :     0.055434
      dxz     :     0.010063
      dyz     :     0.003648
      dx2y2   :     0.018384
      dxy     :     0.018994
  3 C s       :     3.112325  s :     3.112325
      pz      :     0.958658  p :     2.832319
      px      :     0.942674
      py      :     0.930988
      dz2     :     0.002108  d :     0.040568
      dxz     :     0.007896
      dyz     :     0.002108
      dx2y2   :     0.015452
      dxy     :     0.013005
  4 H s       :     0.999379  s :     0.999379
      pz      :     0.010199  p :     0.022845
      px      :     0.009649
      py      :     0.002996
  5 H s       :     0.948996  s :     0.948996
      pz      :     0.006495  p :     0.028507
      px      :     0.004230
      py      :     0.017782
  6 H s       :     0.934360  s :     0.934360
      pz      :     0.006720  p :     0.029467
      px      :     0.004876
      py      :     0.017871
  7 H s       :     0.928254  s :     0.928254
      pz      :     0.005753  p :     0.028783
      px      :     0.014307
      py      :     0.008724


                     *******************************
                     * LOEWDIN POPULATION ANALYSIS *
                     *******************************

----------------------
LOEWDIN ATOMIC CHARGES
----------------------
   0 C :   -0.055331
   1 O :    0.035622
   2 C :   -0.060470
   3 C :   -0.012151
   4 H :   -0.010130
   5 H :    0.037443
   6 H :    0.030125
   7 H :    0.034891

-------------------------------
LOEWDIN REDUCED ORBITAL CHARGES
-------------------------------
  0 C s       :     2.875789  s :     2.875789
      pz      :     0.893441  p :     2.777808
      px      :     0.936426
      py      :     0.947942
      dz2     :     0.065368  d :     0.401734
      dxz     :     0.055276
      dyz     :     0.082417
      dx2y2   :     0.069813
      dxy     :     0.128860
  1 O s       :     3.473259  s :     3.473259
      pz      :     1.458080  p :     4.455313
      px      :     1.568507
      py      :     1.428727
      dz2     :     0.004635  d :     0.035805
      dxz     :     0.002613
      dyz     :     0.012435
      dx2y2   :     0.009124
      dxy     :     0.006998
  2 C s       :     2.866307  s :     2.866307
      pz      :     0.950184  p :     3.025518
      px      :     1.058368
      py      :     1.016965
      dz2     :     0.012891  d :     0.168645
      dxz     :     0.026802
      dyz     :     0.009623
      dx2y2   :     0.059066
      dxy     :     0.060263
  3 C s       :     2.871525  s :     2.871525
      pz      :     0.941314  p :     3.008908
      px      :     1.041198
      py      :     1.026395
      dz2     :     0.009277  d :     0.131719
      dxz     :     0.019896
      dyz     :     0.008074
      dx2y2   :     0.051641
      dxy     :     0.042831
  4 H s       :     0.944476  s :     0.944476
      pz      :     0.028953  p :     0.065653
      px      :     0.026815
      py      :     0.009885
  5 H s       :     0.883161  s :     0.883161
      pz      :     0.017986  p :     0.079397
      px      :     0.014450
      py      :     0.046961
  6 H s       :     0.887715  s :     0.887715
      pz      :     0.019674  p :     0.082160
      px      :     0.013918
      py      :     0.048568
  7 H s       :     0.887399  s :     0.887399
      pz      :     0.017018  p :     0.077709
      px      :     0.036489
      py      :     0.024202


                      *****************************
                      * MAYER POPULATION ANALYSIS *
                      *****************************

  NA   - Mulliken gross atomic population
  ZA   - Total nuclear charge
  QA   - Mulliken gross atomic charge
  VA   - Mayer's total valence
  BVA  - Mayer's bonded valence
  FA   - Mayer's free valence

  ATOM       NA         ZA         QA         VA         BVA        FA
  0 C      5.8514     6.0000     0.1486     4.1746     4.1746     0.0000
  1 O      8.1527     8.0000    -0.1527     2.3600     2.3600     0.0000
  2 C      6.0901     6.0000    -0.0901     3.9491     3.9491     0.0000
  3 C      5.9852     6.0000     0.0148     3.9815     3.9815    -0.0000
  4 H      1.0222     1.0000    -0.0222     0.9587     0.9587    -0.0000
  5 H      0.9775     1.0000     0.0225     0.9857     0.9857     0.0000
  6 H      0.9638     1.0000     0.0362     0.9854     0.9854     0.0000
  7 H      0.9570     1.0000     0.0430     0.9716     0.9716    -0.0000

  Mayer bond orders larger than 0.100000
B(  0-C ,  1-O ) :   2.2535 B(  0-C ,  2-C ) :   0.9856 B(  0-C ,  4-H ) :   0.8993 
B(  2-C ,  3-C ) :   1.9948 B(  2-C ,  5-H ) :   0.9393 B(  3-C ,  6-H ) :   0.9461 
B(  3-C ,  7-H ) :   0.9511 

-------
TIMINGS
-------

Total SCF time: 0 days 0 hours 2 min 42 sec 

Total time                  ....     162.559 sec
Sum of individual times     ....     126.343 sec  ( 77.7%)

Fock matrix formation       ....     117.094 sec  ( 72.0%)
  Split-RI-J                ....       0.943 sec  (  0.8% of F)
  Chain of spheres X        ....       8.738 sec  (  7.5% of F)
  XC integration            ....      37.271 sec  ( 31.8% of F)
    Basis function eval.    ....       1.719 sec  (  4.6% of XC)
    Density eval.           ....       0.766 sec  (  2.1% of XC)
    XC-Functional eval.     ....       0.544 sec  (  1.5% of XC)
    XC-Potential eval.      ....       0.618 sec  (  1.7% of XC)
Diagonalization             ....       0.007 sec  (  0.0%)
Density matrix formation    ....       0.001 sec  (  0.0%)
Population analysis         ....       0.052 sec  (  0.0%)
Initial guess               ....       0.106 sec  (  0.1%)
Orbital Transformation      ....       0.000 sec  (  0.0%)
Orbital Orthonormalization  ....       0.000 sec  (  0.0%)
DIIS solution               ....       1.571 sec  (  1.0%)
SOSCF solution              ....       0.005 sec  (  0.0%)
Grid generation             ....       7.508 sec  (  4.6%)

Maximum memory used throughout the entire SCF-calculation: 51.7 MB
------------------------------------------------------------------------------
                        ORCA TD-DFT/TDA CALCULATION
------------------------------------------------------------------------------

Input orbitals are from        ... acrolien.316.gbw
CI-vector output               ... acrolien.316.cis
Tamm-Dancoff approximation     ... operative
CIS-Integral strategy          ... AO-integrals
Integral handling              ... AO integral Direct
Max. core memory used          ... 512 MB
Reference state                ... RHF
Generation of triplets         ... off
Follow IRoot                   ... off
Number of operators            ... 1
Orbital ranges used for CIS calculation:
 Operator 0:  Orbitals   4... 14  to  15... 75
XAS localization array:
 Operator 0:  Orbitals  -1... -1

-------------------
XC-INTEGRATION GRID
-------------------

General Integration Accuracy     IntAcc      ... 3.467
Radial Grid Type                 RadialGrid  ... OptM3 with GC (2021)
Angular Grid (max. ang.)         AngularGrid ... 1 (Lebedev-50)
Angular grid pruning method      GridPruning ... 4 (adaptive)
Weight generation scheme         WeightScheme... Becke
Basis function cutoff            BFCut       ... 1.0000e-11
Integration weight cutoff        WCut        ... 1.0000e-14
Angular grids for H and He will be reduced by one unit
Partially contracted basis set               ... off
Rotationally invariant grid construction     ... off

Total number of grid points                  ...     5501
Total number of batches                      ...       90
Average number of points per batch           ...       61
Average number of grid points per atom       ...      688

---------------------
COSX-INTEGRATION GRID
---------------------

General Integration Accuracy     IntAcc      ... 3.067
Radial Grid Type                 RadialGrid  ... OptM3 with GC (2021)
Angular Grid (max. ang.)         AngularGrid ... 1 (Lebedev-50)
Angular grid pruning method      GridPruning ... 4 (adaptive)
Weight generation scheme         WeightScheme... Becke
Basis function cutoff            BFCut       ... 1.0000e-11
Integration weight cutoff        WCut        ... 1.0000e-14
Angular grids for H and He will be reduced by one unit
Partially contracted basis set               ... on
Rotationally invariant grid construction     ... off

Total number of grid points                  ...     2511
Total number of batches                      ...       45
Average number of points per batch           ...       55
Average number of grid points per atom       ...      314

---------------
TD-DFT XC SETUP
---------------

DFT calculation                         ... on
Name of the grid file                   ... acrolien.316.grid_cis.tmp
Exchange functional (TD-DFT)            ... B88
   X-Alpha parameter    XAlpha (TD-DFT) ...  0.666667
   Becke's b parameter  XBeta (TD-DFT)  ...  0.004200
Correlation functional (TD-DFT)         ... LYP
 LDA part of GGA corr.  LDAOpt (TD-DFT) ... VWN-5
Hybrid DFT                              ... on
   Exchange mixing (TD-DFT)             ...  0.200
   GGA exch. scaling (TD-DFT)           ...  0.720
   GGA corr. scaling (TD-DFT)           ...  0.810

Building densities             ... done
Calculating rho(r) on the grid ... done
Building xc-kernel on the grid ... done
                    *** TD-DFT CALCULATION INITIALIZED ***

------------------------
DAVIDSON-DIAGONALIZATION
------------------------

Dimension of the eigenvalue problem            ...    671
Number of roots to be determined               ...      1
Maximum size of the expansion space            ...     10
Maximum number of iterations                   ...    100
Convergence tolerance for the residual         ...    2.500e-07
Convergence tolerance for the energies         ...    2.500e-07
Orthogonality tolerance                        ...    1.000e-14
Level Shift                                    ...    0.000e+00
Constructing the preconditioner                ... o.k.
Building the initial guess                     ... o.k.
Number of trial vectors determined             ...     10


                       ****Iteration    0****

   Memory handling for direct AO based CIS:
   Memory per vector needed      ...     1 MB
   Memory needed                 ...     0 MB
   Memory available              ...   512 MB
   Number of vectors per batch   ...   512
   Number of batches             ...     1
   Time for densities:            0.000
   Time for RI-J (Direct):        0.069
   Time for K (COSX):             0.234
   Time for XC-Integration:       0.082
   Time for Sigma-Completion:     0.038
   Size of expansion space: 3
   Lowest Energy          :     0.151882507955
   Maximum Energy change  :     0.151882507955 (vector 0)
   Maximum residual norm  :     0.001395550301

                       ****Iteration    1****
   Time for densities:            0.000
   Time for RI-J (Direct):        0.055
   Time for K (COSX):             2.069
   Time for XC-Integration:       0.042
   Time for Sigma-Completion:     0.000
   Size of expansion space: 4
   Lowest Energy          :     0.150065602467
   Maximum Energy change  :     0.001816905489 (vector 0)
   Maximum residual norm  :     0.000132682319

                       ****Iteration    2****
   Time for densities:            0.000
   Time for RI-J (Direct):        0.055
   Time for K (COSX):             1.799
   Time for XC-Integration:       0.042
   Time for Sigma-Completion:     0.000
   Size of expansion space: 5
   Lowest Energy          :     0.149945076474
   Maximum Energy change  :     0.000120525993 (vector 0)
   Maximum residual norm  :     0.000016421935

                       ****Iteration    3****
   Time for densities:            0.000
   Time for RI-J (Direct):        0.053
   Time for K (COSX):             2.725
   Time for XC-Integration:       0.043
   Time for Sigma-Completion:     0.000
   Size of expansion space: 6
   Lowest Energy          :     0.149928237466
   Maximum Energy change  :     0.000016839008 (vector 0)
   Maximum residual norm  :     0.000000948849

                       ****Iteration    4****
   Time for densities:            0.000
   Time for RI-J (Direct):        0.054
   Time for K (COSX):             2.152
   Time for XC-Integration:       0.043
   Time for Sigma-Completion:     0.000
   Size of expansion space: 7
   Lowest Energy          :     0.149927223165
   Maximum Energy change  :     0.000001014301 (vector 0)
   Maximum residual norm  :     0.000000060915

      *** CONVERGENCE OF RESIDUAL NORM REACHED ***

Storing the converged CI vectors               ... acrolien.316.cis1

                 *** DAVIDSON DONE ***

Total time for solving the CIS problem:    14.626sec

------------------------------------
TD-DFT/TDA EXCITED STATES (SINGLETS)
------------------------------------

the weight of the individual excitations are printed if larger than 1.0e-02

STATE  1:  E=   0.149927 au      4.080 eV    32905.2 cm**-1 <S**2> =   0.000000
    14a ->  15a  :     0.910338 (c=  0.95411648)
    14a ->  16a  :     0.081988 (c= -0.28633624)


-----------------------------
TD-DFT/TDA-EXCITATION SPECTRA
-----------------------------

Center of mass = ( -0.6858, -0.5959, -0.3720)
Calculating the Dipole integrals                  ... done
Transforming integrals                            ... done
Calculating the Linear Momentum integrals         ... done
Transforming integrals                            ... done
Calculating angular momentum integrals            ... done
Transforming integrals                            ... done

-----------------------------------------------------------------------------
         ABSORPTION SPECTRUM VIA TRANSITION ELECTRIC DIPOLE MOMENTS
-----------------------------------------------------------------------------
State   Energy    Wavelength  fosc         T2        TX        TY        TZ  
        (cm-1)      (nm)                 (au**2)    (au)      (au)      (au) 
-----------------------------------------------------------------------------
   1   32905.2    303.9   0.000935900   0.00936   0.09665  -0.00405  -0.00255

-----------------------------------------------------------------------------
         ABSORPTION SPECTRUM VIA TRANSITION VELOCITY DIPOLE MOMENTS
-----------------------------------------------------------------------------
State   Energy    Wavelength   fosc        P2         PX        PY        PZ  
        (cm-1)      (nm)                 (au**2)     (au)      (au)      (au) 
-----------------------------------------------------------------------------
   1   32905.2    303.9   0.000873710   0.00020   0.00832  -0.00436  -0.01040

-------------------------------------------------------------------
                             CD SPECTRUM
-------------------------------------------------------------------
State  Energy     Wavelength     R         MX        MY        MZ   
       (cm-1)       (nm)     (1e40*cgs)   (au)      (au)      (au)  
-------------------------------------------------------------------
   1   32905.2    303.9      4.41564   0.11780   0.35068   0.23485

-------------------------------------------------------------------
         CD SPECTRUM VIA TRANSITION VELOCITY DIPOLE MOMENTS        
-------------------------------------------------------------------
State  Energy     Wavelength     R         MX        MY        MZ   
       (cm-1)       (nm)     (1e40*cgs)   (au)      (au)      (au)  
-------------------------------------------------------------------
   1   32905.2    303.9     -9.40228   0.11780   0.35068   0.23485

Total run time:       24.679 sec

           *** ORCA-CIS/TD-DFT FINISHED WITHOUT ERROR ***

Maximum memory used throughout the entire CIS-calculation: 48.6 MB

-----------------------
CIS/TD-DFT TOTAL ENERGY
-----------------------

    E(SCF)  =   -191.793706148 Eh
    DE(CIS) =      0.149927223 Eh (Root  1)
    ----------------------------- ---------
    E(tot)  =   -191.643778925 Eh


-------------------------   --------------------
FINAL SINGLE POINT ENERGY      -191.643778924518
-------------------------   --------------------


                            ***************************************
                            *     ORCA property calculations      *
                            ***************************************

                                    ---------------------
                                    Active property flags
                                    ---------------------
   (+) Dipole Moment


------------------------------------------------------------------------------
                       ORCA ELECTRIC PROPERTIES CALCULATION
------------------------------------------------------------------------------

Dipole Moment Calculation                       ... on
Quadrupole Moment Calculation                   ... off
Polarizability Calculation                      ... off
GBWName                                         ... acrolien.316.gbw
Electron density                                ... acrolien.316.scfp
The origin for moment calculation is the CENTER OF MASS  = (-0.685768, -0.595934 -0.371956)

-------------
DIPOLE MOMENT
-------------
                                X             Y             Z
Electronic contribution:     -2.18201      -1.53608      -1.05145
Nuclear contribution   :      2.62598       2.27673       1.39240
                        -----------------------------------------
Total Dipole Moment    :      0.44397       0.74065       0.34095
                        -----------------------------------------
Magnitude (a.u.)       :      0.92840
Magnitude (Debye)      :      2.35980



--------------------
Rotational spectrum 
--------------------
 
Rotational constants in cm-1:     0.834784     0.185360     0.162243 
Rotational constants in MHz : 25026.207839  5556.960114  4863.913833 

 Dipole components along the rotational axes: 
x,y,z [a.u.] :    -0.794176    -0.444449    -0.183491 
x,y,z [Debye]:    -2.018634    -1.129700    -0.466398 

 

Timings for individual modules:

Sum of individual times         ...      191.025 sec (=   3.184 min)
GTO integral calculation        ...        3.767 sec (=   0.063 min)   2.0 %
SCF iterations                  ...      162.570 sec (=   2.709 min)  85.1 %
CIS module                      ...       24.688 sec (=   0.411 min)  12.9 %
                             ****ORCA TERMINATED NORMALLY****
TOTAL RUN TIME: 0 days 0 hours 3 minutes 16 seconds 822 msec
