
                                 *****************
                                 * O   R   C   A *
                                 *****************

                                            #,                                       
                                            ###                                      
                                            ####                                     
                                            #####                                    
                                            ######                                   
                                           ########,                                 
                                     ,,################,,,,,                         
                               ,,#################################,,                 
                          ,,##########################################,,             
                       ,#########################################, ''#####,          
                    ,#############################################,,   '####,        
                  ,##################################################,,,,####,       
                ,###########''''           ''''###############################       
              ,#####''   ,,,,##########,,,,          '''####'''          '####       
            ,##' ,,,,###########################,,,                        '##       
           ' ,,###''''                  '''############,,,                           
         ,,##''                                '''############,,,,        ,,,,,,###''
      ,#''                                            '''#######################'''  
     '                                                          ''''####''''         
             ,#######,   #######,   ,#######,      ##                                
            ,#'     '#,  ##    ##  ,#'     '#,    #''#        ######   ,####,        
            ##       ##  ##   ,#'  ##            #'  '#       #        #'  '#        
            ##       ##  #######   ##           ,######,      #####,   #    #        
            '#,     ,#'  ##    ##  '#,     ,#' ,#      #,         ##   #,  ,#        
             '#######'   ##     ##  '#######'  #'      '#     #####' # '####'        



                  #######################################################
                  #                        -***-                        #
                  #          Department of theory and spectroscopy      #
                  #    Directorship and core code : Frank Neese         #
                  #        Max Planck Institute fuer Kohlenforschung    #
                  #                Kaiser Wilhelm Platz 1               #
                  #                 D-45470 Muelheim/Ruhr               #
                  #                      Germany                        #
                  #                                                     #
                  #                  All rights reserved                #
                  #                        -***-                        #
                  #######################################################


                         Program Version 5.0.3 -  RELEASE  -


 With contributions from (in alphabetic order):
   Daniel Aravena         : Magnetic Suceptibility
   Michael Atanasov       : Ab Initio Ligand Field Theory (pilot matlab implementation)
   Alexander A. Auer      : GIAO ZORA, VPT2 properties, NMR spectrum
   Ute Becker             : Parallelization
   Giovanni Bistoni       : ED, misc. LED, open-shell LED, HFLD
   Martin Brehm           : Molecular dynamics
   Dmytro Bykov           : SCF Hessian
   Vijay G. Chilkuri      : MRCI spin determinant printing, contributions to CSF-ICE
   Dipayan Datta          : RHF DLPNO-CCSD density
   Achintya Kumar Dutta   : EOM-CC, STEOM-CC
   Dmitry Ganyushin       : Spin-Orbit,Spin-Spin,Magnetic field MRCI
   Miquel Garcia          : C-PCM and meta-GGA Hessian, CC/C-PCM, Gaussian charge scheme
   Yang Guo               : DLPNO-NEVPT2, F12-NEVPT2, CIM, IAO-localization
   Andreas Hansen         : Spin unrestricted coupled pair/coupled cluster methods
   Benjamin Helmich-Paris : MC-RPA, TRAH-SCF, COSX integrals
   Lee Huntington         : MR-EOM, pCC
   Robert Izsak           : Overlap fitted RIJCOSX, COSX-SCS-MP3, EOM
   Marcus Kettner         : VPT2
   Christian Kollmar      : KDIIS, OOCD, Brueckner-CCSD(T), CCSD density, CASPT2, CASPT2-K
   Simone Kossmann        : Meta GGA functionals, TD-DFT gradient, OOMP2, MP2 Hessian
   Martin Krupicka        : Initial AUTO-CI
   Lucas Lang             : DCDCAS
   Marvin Lechner         : AUTO-CI (C++ implementation), FIC-MRCC
   Dagmar Lenk            : GEPOL surface, SMD
   Dimitrios Liakos       : Extrapolation schemes; Compound Job, initial MDCI parallelization
   Dimitrios Manganas     : Further ROCIS development; embedding schemes
   Dimitrios Pantazis     : SARC Basis sets
   Anastasios Papadopoulos: AUTO-CI, single reference methods and gradients
   Taras Petrenko         : DFT Hessian,TD-DFT gradient, ASA, ECA, R-Raman, ABS, FL, XAS/XES, NRVS
   Peter Pinski           : DLPNO-MP2, DLPNO-MP2 Gradient
   Christoph Reimann      : Effective Core Potentials
   Marius Retegan         : Local ZFS, SOC
   Christoph Riplinger    : Optimizer, TS searches, QM/MM, DLPNO-CCSD(T), (RO)-DLPNO pert. Triples
   Tobias Risthaus        : Range-separated hybrids, TD-DFT gradient, RPA, STAB
   Michael Roemelt        : Original ROCIS implementation
   Masaaki Saitow         : Open-shell DLPNO-CCSD energy and density
   Barbara Sandhoefer     : DKH picture change effects
   Avijit Sen             : IP-ROCIS
   Kantharuban Sivalingam : CASSCF convergence, NEVPT2, FIC-MRCI
   Bernardo de Souza      : ESD, SOC TD-DFT
   Georgi Stoychev        : AutoAux, RI-MP2 NMR, DLPNO-MP2 response
   Willem Van den Heuvel  : Paramagnetic NMR
   Boris Wezisla          : Elementary symmetry handling
   Frank Wennmohs         : Technical directorship


 We gratefully acknowledge several colleagues who have allowed us to
 interface, adapt or use parts of their codes:
   Stefan Grimme, W. Hujo, H. Kruse, P. Pracht,  : VdW corrections, initial TS optimization,
                  C. Bannwarth, S. Ehlert          DFT functionals, gCP, sTDA/sTD-DF
   Ed Valeev, F. Pavosevic, A. Kumar             : LibInt (2-el integral package), F12 methods
   Garnet Chan, S. Sharma, J. Yang, R. Olivares  : DMRG
   Ulf Ekstrom                                   : XCFun DFT Library
   Mihaly Kallay                                 : mrcc  (arbitrary order and MRCC methods)
   Jiri Pittner, Ondrej Demel                    : Mk-CCSD
   Frank Weinhold                                : gennbo (NPA and NBO analysis)
   Christopher J. Cramer and Donald G. Truhlar   : smd solvation model
   Lars Goerigk                                  : TD-DFT with DH, B97 family of functionals
   V. Asgeirsson, H. Jonsson                     : NEB implementation
   FAccTs GmbH                                   : IRC, NEB, NEB-TS, DLPNO-Multilevel, CI-OPT
                                                   MM, QMMM, 2- and 3-layer-ONIOM, Crystal-QMMM,
                                                   LR-CPCM, SF, NACMEs, symmetry and pop. for TD-DFT,
                                                   nearIR, NL-DFT gradient (VV10), updates on ESD,
                                                   ML-optimized integration grids
   S Lehtola, MJT Oliveira, MAL Marques          : LibXC Library
   Liviu Ungur et al                             : ANISO software


 Your calculation uses the libint2 library for the computation of 2-el integrals
 For citations please refer to: http://libint.valeyev.net

 Your ORCA version has been built with support for libXC version: 5.1.0
 For citations please refer to: https://tddft.org/programs/libxc/

 This ORCA versions uses:
   CBLAS   interface :  Fast vector & matrix operations
   LAPACKE interface :  Fast linear algebra routines
   SCALAPACK package :  Parallel linear algebra routines
   Shared memory     :  Shared parallel matrices
   BLAS/LAPACK       :  OpenBLAS 0.3.15  USE64BITINT DYNAMIC_ARCH NO_AFFINITY Haswell SINGLE_THREADED
        Core in use  :  Haswell
   Copyright (c) 2011-2014, The OpenBLAS Project


================================================================================

----- Orbital basis set information -----
Your calculation utilizes the basis: cc-pVDZ 
       H, B-Ne : Obtained from the ccRepo (grant-hill.group.shef.ac.uk/ccrepo) Feb. 2017
                 T. H. Dunning, Jr., J. Chem. Phys. 90, 1007 (1989)
            He : Obtained from the ccRepo (grant-hill.group.shef.ac.uk/ccrepo) Feb. 2017
                 D. E. Woon, T. H. Dunning, Jr., J. Chem. Phys. 100, 2975 (1994)
  Li-Be, Na-Mg : Obtained from the ccRepo (grant-hill.group.shef.ac.uk/ccrepo) Feb. 2017
                 B. P. Prascher, D. E. Woon, K. A. Peterson, T. H. Dunning, Jr., A. K. Wilson, Theor. Chem. Acc. 128, 69 (2011)
         Al-Ar : Obtained from the ccRepo (grant-hill.group.shef.ac.uk/ccrepo) Feb. 2017
                 D. E. Woon, T. H. Dunning, Jr., J. Chem. Phys. 98, 1358 (1993)
            Ca : Obtained from the Peterson Research Group Website (tyr0.chem.wsu.edu/~kipeters) Feb. 2017
                 J. Koput, K. A. Peterson, J. Phys. Chem. 106, 9595 (2002)
         Sc-Zn : Obtained from the ccRepo (grant-hill.group.shef.ac.uk/ccrepo) Feb. 2017
                 N. B. Balabanov, K. A. Peterson, J. Chem. Phys. 123, 064107 (2005)
                 N. B. Balabanov, K. A. Peterson, J. Chem. Phys. 125, 074110 (2006)
         Ga-Kr : Obtained from the ccRepo (grant-hill.group.shef.ac.uk/ccrepo) Feb. 2017
                 A. K. Wilson, D. E. Woon, K. A. Peterson, T. H. Dunning, Jr., J. Chem. Phys. 110, 7667 (1999)

----- AuxJ basis set information -----
Your calculation utilizes the auxiliary basis: def2/J
   F. Weigend, Phys. Chem. Chem. Phys. 8, 1057 (2006).

================================================================================
                                        WARNINGS
                       Please study these warnings very carefully!
================================================================================

INFO   : Checking CIS options ...

INFO   : the flag for use of the SHARK integral package has been found!

================================================================================
                                       INPUT FILE
================================================================================
NAME = acrolien.1116.com
|  1> ! B3LYP cc-pVDZ
|  2> !TightSCF
|  3> %scf
|  4>  ConvForced true
|  5>  convergence tight
|  6>  MaxIter 500
|  7> end
|  8>  
|  9> %tddft 
| 10>  nroots 1
| 11> end
| 12> 
| 13> # 	28324
| 14> * xyz 0 1
| 15> 		C   -0.548499  -0.395195  -0.000858
| 16> 		O   -0.602439  -1.647758   0.010574
| 17> 		C    0.634712   0.401834   0.004529
| 18> 		C    1.815943  -0.139072   0.001746
| 19> 		H   -1.375020   0.064485  -0.146860
| 20> 		H    0.419063   1.460703   0.047737
| 21> 		H    2.139141  -1.089756  -0.163240
| 22> 		H    2.686657   0.570908   0.038767
| 23> *
| 24> 
| 25>                          ****END OF INPUT****
================================================================================

                       ****************************
                       * Single Point Calculation *
                       ****************************

---------------------------------
CARTESIAN COORDINATES (ANGSTROEM)
---------------------------------
  C     -0.548499   -0.395195   -0.000858
  O     -0.602439   -1.647758    0.010574
  C      0.634712    0.401834    0.004529
  C      1.815943   -0.139072    0.001746
  H     -1.375020    0.064485   -0.146860
  H      0.419063    1.460703    0.047737
  H      2.139141   -1.089756   -0.163240
  H      2.686657    0.570908    0.038767

----------------------------
CARTESIAN COORDINATES (A.U.)
----------------------------
  NO LB      ZA    FRAG     MASS         X           Y           Z
   0 C     6.0000    0    12.011   -1.036513   -0.746810   -0.001621
   1 O     8.0000    0    15.999   -1.138445   -3.113811    0.019982
   2 C     6.0000    0    12.011    1.199432    0.759356    0.008559
   3 C     6.0000    0    12.011    3.431635   -0.262808    0.003299
   4 H     1.0000    0     1.008   -2.598411    0.121859   -0.277525
   5 H     1.0000    0     1.008    0.791914    2.760329    0.090210
   6 H     1.0000    0     1.008    4.042391   -2.059340   -0.308479
   7 H     1.0000    0     1.008    5.077046    1.078860    0.073259

--------------------------------
INTERNAL COORDINATES (ANGSTROEM)
--------------------------------
 C      0   0   0     0.000000000000     0.00000000     0.00000000
 O      1   0   0     1.253776009977     0.00000000     0.00000000
 C      1   2   0     1.426629775776   126.42614351     0.00000000
 C      3   1   2     1.299189640232   121.43045861     1.08503367
 H      1   2   3     0.956953107443   116.36744384   171.11234503
 H      3   1   2     1.081468899981   112.44367546   183.19705762
 H      4   3   1     1.017584097388   132.69473435    12.29960278
 H      4   3   1     1.124092978644   116.18248314   181.83504288

---------------------------
INTERNAL COORDINATES (A.U.)
---------------------------
 C      0   0   0     0.000000000000     0.00000000     0.00000000
 O      1   0   0     2.369293292136     0.00000000     0.00000000
 C      1   2   0     2.695939570714   126.42614351     0.00000000
 C      3   1   2     2.455112616066   121.43045861     1.08503367
 H      1   2   3     1.808379296072   116.36744384   171.11234503
 H      3   1   2     2.043680043317   112.44367546   183.19705762
 H      4   3   1     1.922955262296   132.69473435    12.29960278
 H      4   3   1     2.124227878701   116.18248314   181.83504288

---------------------
BASIS SET INFORMATION
---------------------
There are 3 groups of distinct atoms

 Group   1 Type C   : 17s4p1d contracted to 3s2p1d pattern {881/31/1}
 Group   2 Type O   : 17s4p1d contracted to 3s2p1d pattern {881/31/1}
 Group   3 Type H   : 4s1p contracted to 2s1p pattern {31/1}

Atom   0C    basis set group =>   1
Atom   1O    basis set group =>   2
Atom   2C    basis set group =>   1
Atom   3C    basis set group =>   1
Atom   4H    basis set group =>   3
Atom   5H    basis set group =>   3
Atom   6H    basis set group =>   3
Atom   7H    basis set group =>   3
---------------------------------
AUXILIARY/J BASIS SET INFORMATION
---------------------------------
There are 3 groups of distinct atoms

 Group   1 Type C   : 12s5p4d2f1g contracted to 6s4p3d1f1g pattern {711111/2111/211/2/1}
 Group   2 Type O   : 12s5p4d2f1g contracted to 6s4p3d1f1g pattern {711111/2111/211/2/1}
 Group   3 Type H   : 5s2p1d contracted to 3s1p1d pattern {311/2/1}

Atom   0C    basis set group =>   1
Atom   1O    basis set group =>   2
Atom   2C    basis set group =>   1
Atom   3C    basis set group =>   1
Atom   4H    basis set group =>   3
Atom   5H    basis set group =>   3
Atom   6H    basis set group =>   3
Atom   7H    basis set group =>   3
------------------------------------------------------------------------------
                           ORCA GTO INTEGRAL CALCULATION
                           -- RI-GTO INTEGRALS CHOSEN --
------------------------------------------------------------------------------
------------------------------------------------------------------------------
                   ___                                                        
                  /   \      - P O W E R E D   B Y -                         
                 /     \                                                     
                 |  |  |   _    _      __       _____    __    __             
                 |  |  |  | |  | |    /  \     |  _  \  |  |  /  |          
                  \  \/   | |  | |   /    \    | | | |  |  | /  /          
                 / \  \   | |__| |  /  /\  \   | |_| |  |  |/  /          
                |  |  |   |  __  | /  /__\  \  |    /   |      \           
                |  |  |   | |  | | |   __   |  |    \   |  |\   \          
                \     /   | |  | | |  |  |  |  | |\  \  |  | \   \       
                 \___/    |_|  |_| |__|  |__|  |_| \__\ |__|  \__/        
                                                                              
                      - O R C A' S   B I G   F R I E N D -                    
                                      &                                       
                       - I N T E G R A L  F E E D E R -                       
                                                                              
 v1 FN, 2020, v2 2021                                                         
------------------------------------------------------------------------------


Reading SHARK input file acrolien.1116.SHARKINP.tmp ... ok
----------------------
SHARK INTEGRAL PACKAGE
----------------------

Number of atoms                             ...      8
Number of basis functions                   ...    100
Number of shells                            ...     60
Maximum angular momentum                    ...      2
Integral batch strategy                     ... SHARK/LIBINT Hybrid
RI-J (if used) integral strategy            ... SPLIT-RIJ (Revised 2003 algorithm where possible)
Printlevel                                  ...      1
Contraction scheme used                     ... PARTIAL GENERAL contraction
Coulomb Range Separation                    ... NOT USED
Exchange Range Separation                   ... NOT USED
Finite Nucleus Model                        ... NOT USED
Auxiliary Coulomb fitting basis             ... AVAILABLE
   # of basis functions in Aux-J            ...    240
   # of shells in Aux-J                     ...     80
   Maximum angular momentum in Aux-J        ...      4
Auxiliary J/K fitting basis                 ... NOT available
Auxiliary Correlation fitting basis         ... NOT available
Auxiliary 'external' fitting basis          ... NOT available
Integral threshold                          ...     2.500000e-11
Primitive cut-off                           ...     2.500000e-12
Primitive pair pre-selection threshold      ...     2.500000e-12

Calculating pre-screening integrals         ... done (  0.0 sec) Dimension = 60
Calculating pre-screening integrals (ORCA)  ... done (  0.3 sec) Dimension = 36
Organizing shell pair data                  ... done (  0.0 sec)
Shell pair information
Total number of shell pairs                 ...      1830
Shell pairs after pre-screening             ...      1538
Total number of primitive shell pairs       ...      2950
Primitive shell pairs kept                  ...      2320
          la=0 lb=0:    726 shell pairs
          la=1 lb=0:    505 shell pairs
          la=1 lb=1:     78 shell pairs
          la=2 lb=0:    171 shell pairs
          la=2 lb=1:     48 shell pairs
          la=2 lb=2:     10 shell pairs

Calculating one electron integrals          ... done (  0.0 sec)
Calculating RI/J V-Matrix + Cholesky decomp.... done (  1.2 sec)
Calculating Nuclear repulsion               ... done (  0.4 sec) ENN=    105.991109007806 Eh

SHARK setup successfully completed in   6.1 seconds

Maximum memory used throughout the entire GTOINT-calculation: 14.2 MB
-------------------------------------------------------------------------------
                                 ORCA SCF
-------------------------------------------------------------------------------

------------
SCF SETTINGS
------------
Hamiltonian:
 Density Functional     Method          .... DFT(GTOs)
 Exchange Functional    Exchange        .... B88
   X-Alpha parameter    XAlpha          ....  0.666667
   Becke's b parameter  XBeta           ....  0.004200
 Correlation Functional Correlation     .... LYP
 LDA part of GGA corr.  LDAOpt          .... VWN-5
 Gradients option       PostSCFGGA      .... off
 Hybrid DFT is turned on
   Fraction HF Exchange ScalHFX         ....  0.200000
   Scaling of DF-GGA-X  ScalDFX         ....  0.720000
   Scaling of DF-GGA-C  ScalDFC         ....  0.810000
   Scaling of DF-LDA-C  ScalLDAC        ....  1.000000
   Perturbative correction              ....  0.000000
   Density functional embedding theory  .... OFF
   NL short-range parameter             ....  4.800000
 RI-approximation to the Coulomb term is turned on
   Number of AuxJ basis functions       .... 240
   RIJ-COSX (HFX calculated with COS-X)).... on


General Settings:
 Integral files         IntName         .... acrolien.1116
 Hartree-Fock type      HFTyp           .... RHF
 Total Charge           Charge          ....    0
 Multiplicity           Mult            ....    1
 Number of Electrons    NEL             ....   30
 Basis Dimension        Dim             ....   76
 Nuclear Repulsion      ENuc            ....    105.9911090078 Eh

Convergence Acceleration:
 DIIS                   CNVDIIS         .... on
   Start iteration      DIISMaxIt       ....    12
   Startup error        DIISStart       ....  0.200000
   # of expansion vecs  DIISMaxEq       ....     5
   Bias factor          DIISBfac        ....   1.050
   Max. coefficient     DIISMaxC        ....  10.000
 Trust-Rad. Augm. Hess. CNVTRAH         .... auto
   Auto Start mean grad. ratio tolernc. ....  1.125000
   Auto Start start iteration           ....    20
   Auto Start num. interpolation iter.  ....    10
   Max. Number of Micro iterations      ....    16
   Max. Number of Macro iterations      .... Maxiter - #DIIS iter
   Number of Davidson start vectors     ....     2
   Converg. threshold I  (grad. norm)   ....   1.000e-05
   Converg. threshold II (energy diff.) ....   1.000e-08
   Grad. Scal. Fac. for Micro threshold ....   0.100
   Minimum threshold for Micro iter.    ....   0.010
   NR start threshold (gradient norm)   ....   0.001
   Initial trust radius                 ....   0.400
   Minimum AH scaling param. (alpha)    ....   1.000
   Maximum AH scaling param. (alpha)    .... 1000.000
   Orbital update algorithm             .... Taylor
   White noise on init. David. guess    .... on
   Maximum white noise                  ....   0.010
   Quad. conv. algorithm                .... NR
 SOSCF                  CNVSOSCF        .... on
   Start iteration      SOSCFMaxIt      ....   150
   Startup grad/error   SOSCFStart      ....  0.003300
 Level Shifting         CNVShift        .... on
   Level shift para.    LevelShift      ....    0.2500
   Turn off err/grad.   ShiftErr        ....    0.0010
 Zerner damping         CNVZerner       .... off
 Static damping         CNVDamp         .... on
   Fraction old density DampFac         ....    0.7000
   Max. Damping (<1)    DampMax         ....    0.9800
   Min. Damping (>=0)   DampMin         ....    0.0000
   Turn off err/grad.   DampErr         ....    0.1000
 Fernandez-Rico         CNVRico         .... off

SCF Procedure:
 Maximum # iterations   MaxIter         ....   500
 SCF integral mode      SCFMode         .... Direct
   Integral package                     .... SHARK and LIBINT hybrid scheme
 Reset frequency        DirectResetFreq ....    20
 Integral Threshold     Thresh          ....  2.500e-11 Eh
 Primitive CutOff       TCut            ....  2.500e-12 Eh

Convergence Tolerance:
 Convergence Check Mode ConvCheckMode   .... Total+1el-Energy
 Convergence forced     ConvForced      .... 1
 Energy Change          TolE            ....  1.000e-08 Eh
 1-El. energy change                    ....  1.000e-05 Eh
 Orbital Gradient       TolG            ....  1.000e-05
 Orbital Rotation angle TolX            ....  1.000e-05
 DIIS Error             TolErr          ....  5.000e-07


Diagonalization of the overlap matrix:
Smallest eigenvalue                        ... 2.627e-03
Time for diagonalization                   ...    0.001 sec
Threshold for overlap eigenvalues          ... 1.000e-08
Number of eigenvalues below threshold      ... 0
Time for construction of square roots      ...    0.302 sec
Total time needed                          ...    0.303 sec

Time for model grid setup =    0.071 sec

------------------------------
INITIAL GUESS: MODEL POTENTIAL
------------------------------
Loading Hartree-Fock densities                     ... done
Calculating cut-offs                               ... done
Initializing the effective Hamiltonian             ... done
Setting up the integral package (SHARK)            ... done
Starting the Coulomb interaction                   ... done (   0.9 sec)
Reading the grid                                   ... done
Mapping shells                                     ... done
Starting the XC term evaluation                    ... done (   0.1 sec)
  promolecular density results
     # of electrons  =     29.999246661
     EX              =    -24.787271378
     EC              =     -0.999593401
     EX+EC           =    -25.786864779
Transforming the Hamiltonian                       ... done (   0.0 sec)
Diagonalizing the Hamiltonian                      ... done (   0.0 sec)
Back transforming the eigenvectors                 ... done (   0.0 sec)
Now organizing SCF variables                       ... done
                      ------------------
                      INITIAL GUESS DONE (   1.1 sec)
                      ------------------
-------------------
DFT GRID GENERATION
-------------------

General Integration Accuracy     IntAcc      ... 4.388
Radial Grid Type                 RadialGrid  ... OptM3 with GC (2021)
Angular Grid (max. ang.)         AngularGrid ... 4 (Lebedev-302)
Angular grid pruning method      GridPruning ... 4 (adaptive)
Weight generation scheme         WeightScheme... Becke
Basis function cutoff            BFCut       ... 1.0000e-11
Integration weight cutoff        WCut        ... 1.0000e-14
Angular grids for H and He will be reduced by one unit
Partially contracted basis set               ... off
Rotationally invariant grid construction     ... off

Total number of grid points                  ...    37349
Total number of batches                      ...      587
Average number of points per batch           ...       63
Average number of grid points per atom       ...     4669
Time for grid setup =    0.276 sec

--------------------
COSX GRID GENERATION
--------------------

GRIDX 1
-------
General Integration Accuracy     IntAcc      ... 3.816
Radial Grid Type                 RadialGrid  ... OptM3 with GC (2021)
Angular Grid (max. ang.)         AngularGrid ... 1 (Lebedev-50)
Angular grid pruning method      GridPruning ... 4 (adaptive)
Weight generation scheme         WeightScheme... Becke
Basis function cutoff            BFCut       ... 1.0000e-11
Integration weight cutoff        WCut        ... 1.0000e-14
Angular grids for H and He will be reduced by one unit
Partially contracted basis set               ... on
Rotationally invariant grid construction     ... off

Total number of grid points                  ...     4795
Total number of batches                      ...       79
Average number of points per batch           ...       60
Average number of grid points per atom       ...      599
UseSFitting                                  ... on

GRIDX 2
-------
General Integration Accuracy     IntAcc      ... 4.020
Radial Grid Type                 RadialGrid  ... OptM3 with GC (2021)
Angular Grid (max. ang.)         AngularGrid ... 2 (Lebedev-110)
Angular grid pruning method      GridPruning ... 4 (adaptive)
Weight generation scheme         WeightScheme... Becke
Basis function cutoff            BFCut       ... 1.0000e-11
Integration weight cutoff        WCut        ... 1.0000e-14
Angular grids for H and He will be reduced by one unit
Partially contracted basis set               ... on
Rotationally invariant grid construction     ... off

Total number of grid points                  ...    10543
Total number of batches                      ...      169
Average number of points per batch           ...       62
Average number of grid points per atom       ...     1318
UseSFitting                                  ... on

GRIDX 3
-------
General Integration Accuracy     IntAcc      ... 4.338
Radial Grid Type                 RadialGrid  ... OptM3 with GC (2021)
Angular Grid (max. ang.)         AngularGrid ... 3 (Lebedev-194)
Angular grid pruning method      GridPruning ... 4 (adaptive)
Weight generation scheme         WeightScheme... Becke
Basis function cutoff            BFCut       ... 1.0000e-11
Integration weight cutoff        WCut        ... 1.0000e-14
Angular grids for H and He will be reduced by one unit
Partially contracted basis set               ... on
Rotationally invariant grid construction     ... off

Total number of grid points                  ...    23266
Total number of batches                      ...      368
Average number of points per batch           ...       63
Average number of grid points per atom       ...     2908
UseSFitting                                  ... on

Time for X-Grid setup             =    8.159 sec

 re-compute Schwartz prescreening matrix in partically contracted basis (1) ...done (   1.233 sec)
--------------
SCF ITERATIONS
--------------
ITER       Energy         Delta-E        Max-DP      RMS-DP      [F,P]     Damp
               ***  Starting incremental Fock matrix formation  ***
  0   -191.6455336883   0.000000000000 0.14419035  0.00481695  0.2396338 0.7000
  1   -191.7059063345  -0.060372646210 0.09145103  0.00310625  0.0928055 0.7000
                               ***Turning on DIIS***
  2   -191.7276364576  -0.021730123136 0.07306490  0.00394519  0.0351080 0.0000
  3   -191.7656969585  -0.038060500935 0.07852337  0.00245252  0.0467195 0.0000
  4   -191.7720189477  -0.006321989208 0.01105139  0.00053499  0.0242431 0.0000
                      *** Initiating the SOSCF procedure ***
                           *** Shutting down DIIS ***
                      *** Re-Reading the Fockian *** 
                      *** Removing any level shift *** 
ITER      Energy       Delta-E        Grad      Rot      Max-DP    RMS-DP
  5   -191.77291492  -0.0008959747  0.000581  0.000581  0.004272  0.000162
               *** Restarting incremental Fock matrix formation ***
  6   -191.77295297  -0.0000380441  0.000329  0.000921  0.001655  0.000089
  7   -191.77295364  -0.0000006746  0.000314  0.000494  0.001439  0.000043
  8   -191.77295456  -0.0000009145  0.000190  0.000323  0.000971  0.000033
  9   -191.77295456  -0.0000000074  0.000147  0.000144  0.000246  0.000010
 10   -191.77295483  -0.0000002706  0.000023  0.000088  0.000154  0.000006
 11   -191.77295483   0.0000000016  0.000037  0.000067  0.000072  0.000002
 12   -191.77295485  -0.0000000140  0.000005  0.000014  0.000069  0.000002
                  ***Gradient check signals convergence***
              ***Rediagonalizing the Fockian in SOSCF/NRSCF***

               *****************************************************
               *                     SUCCESS                       *
               *           SCF CONVERGED AFTER  13 CYCLES          *
               *****************************************************

Old exchange energy                            =     -5.047700346 Eh
New exchange energy                            =     -5.047680678 Eh
Exchange energy change after final integration =      0.000019668 Eh
Total energy after final integration           =   -191.772935179 Eh
Final COS-X integration done in                =     1.530 sec

----------------
TOTAL SCF ENERGY
----------------

Total Energy       :         -191.77293518 Eh           -5218.40686 eV

Components:
Nuclear Repulsion  :          105.99110901 Eh            2884.16470 eV
Electronic Energy  :         -297.76404419 Eh           -8102.57157 eV
One Electron Energy:         -469.16107373 Eh          -12766.52185 eV
Two Electron Energy:          171.39702954 Eh            4663.95028 eV
Max COSX asymmetry :            0.00000129 Eh               0.00004 eV

Virial components:
Potential Energy   :         -382.85677800 Eh          -10418.06257 eV
Kinetic Energy     :          191.08384282 Eh            5199.65571 eV
Virial Ratio       :            2.00360623


DFT components:
N(Alpha)           :       15.000003904198 electrons
N(Beta)            :       15.000003904198 electrons
N(Total)           :       30.000007808395 electrons
E(X)               :      -20.060036464530 Eh       
E(C)               :       -1.188060175496 Eh       
E(XC)              :      -21.248096640026 Eh       
DFET-embed. en.    :        0.000000000000 Eh       

---------------
SCF CONVERGENCE
---------------

  Last Energy change         ...   -3.3077e-10  Tolerance :   1.0000e-08
  Last MAX-Density change    ...    4.8850e-15  Tolerance :   1.0000e-07
  Last RMS-Density change    ...    1.1537e-16  Tolerance :   5.0000e-09
  Last Orbital Gradient      ...    1.8596e-06  Tolerance :   1.0000e-05
  Last Orbital Rotation      ...    4.7403e-06  Tolerance :   1.0000e-05

             **** THE GBW FILE WAS UPDATED (acrolien.1116.gbw) ****
             **** DENSITY acrolien.1116.scfp WAS UPDATED ****
             **** ENERGY FILE WAS UPDATED (acrolien.1116.en.tmp) ****
             **** THE GBW FILE WAS UPDATED (acrolien.1116.gbw) ****
             **** DENSITY acrolien.1116.scfp WAS UPDATED ****
----------------
ORBITAL ENERGIES
----------------

  NO   OCC          E(Eh)            E(eV) 
   0   2.0000     -19.128041      -520.5005 
   1   2.0000     -10.252436      -278.9830 
   2   2.0000     -10.209487      -277.8143 
   3   2.0000     -10.199789      -277.5504 
   4   2.0000      -1.016191       -27.6519 
   5   2.0000      -0.810849       -22.0643 
   6   2.0000      -0.682310       -18.5666 
   7   2.0000      -0.566359       -15.4114 
   8   2.0000      -0.514044       -13.9879 
   9   2.0000      -0.462614       -12.5884 
  10   2.0000      -0.415494       -11.3062 
  11   2.0000      -0.386267       -10.5109 
  12   2.0000      -0.376232       -10.2378 
  13   2.0000      -0.290903        -7.9159 
  14   2.0000      -0.249091        -6.7781 
  15   0.0000      -0.075620        -2.0577 
  16   0.0000       0.063523         1.7286 
  17   0.0000       0.066419         1.8073 
  18   0.0000       0.098532         2.6812 
  19   0.0000       0.134423         3.6578 
  20   0.0000       0.156407         4.2560 
  21   0.0000       0.250340         6.8121 
  22   0.0000       0.295537         8.0420 
  23   0.0000       0.310352         8.4451 
  24   0.0000       0.447272        12.1709 
  25   0.0000       0.455455        12.3936 
  26   0.0000       0.471539        12.8312 
  27   0.0000       0.509249        13.8574 
  28   0.0000       0.517628        14.0854 
  29   0.0000       0.541840        14.7442 
  30   0.0000       0.571103        15.5405 
  31   0.0000       0.620752        16.8915 
  32   0.0000       0.640237        17.4217 
  33   0.0000       0.681229        18.5372 
  34   0.0000       0.718054        19.5392 
  35   0.0000       0.780767        21.2458 
  36   0.0000       0.813094        22.1254 
  37   0.0000       0.880825        23.9685 
  38   0.0000       0.894809        24.3490 
  39   0.0000       0.935151        25.4467 
  40   0.0000       1.002362        27.2757 
  41   0.0000       1.016251        27.6536 
  42   0.0000       1.038762        28.2661 
  43   0.0000       1.058222        28.7957 
  44   0.0000       1.088938        29.6315 
  45   0.0000       1.161874        31.6162 
  46   0.0000       1.181245        32.1433 
  47   0.0000       1.371076        37.3089 
  48   0.0000       1.452875        39.5348 
  49   0.0000       1.494746        40.6741 
  50   0.0000       1.540708        41.9248 
  51   0.0000       1.582037        43.0494 
  52   0.0000       1.595682        43.4207 
  53   0.0000       1.636447        44.5300 
  54   0.0000       1.645317        44.7713 
  55   0.0000       1.703537        46.3556 
  56   0.0000       1.780193        48.4415 
  57   0.0000       1.819292        49.5055 
  58   0.0000       1.834922        49.9308 
  59   0.0000       1.888029        51.3759 
  60   0.0000       1.965718        53.4899 
  61   0.0000       2.042533        55.5802 
  62   0.0000       2.043487        55.6061 
  63   0.0000       2.107985        57.3612 
  64   0.0000       2.186835        59.5068 
  65   0.0000       2.334877        63.5352 
  66   0.0000       2.489893        67.7534 
  67   0.0000       2.607974        70.9666 
  68   0.0000       2.636296        71.7373 
  69   0.0000       2.684835        73.0581 
  70   0.0000       2.722197        74.0747 
  71   0.0000       2.973940        80.9250 
  72   0.0000       3.037592        82.6571 
  73   0.0000       3.146934        85.6324 
  74   0.0000       3.419718        93.0553 
  75   0.0000       3.528430        96.0135 

                    ********************************
                    * MULLIKEN POPULATION ANALYSIS *
                    ********************************

-----------------------
MULLIKEN ATOMIC CHARGES
-----------------------
   0 C :    0.273888
   1 O :   -0.238405
   2 C :   -0.116747
   3 C :    0.128864
   4 H :   -0.072760
   5 H :   -0.011161
   6 H :    0.008845
   7 H :    0.027476
Sum of atomic charges:    0.0000000

--------------------------------
MULLIKEN REDUCED ORBITAL CHARGES
--------------------------------
  0 C s       :     2.985529  s :     2.985529
      pz      :     0.791701  p :     2.597506
      px      :     0.949408
      py      :     0.856397
      dz2     :     0.004905  d :     0.143077
      dxz     :     0.006569
      dyz     :     0.025426
      dx2y2   :     0.037089
      dxy     :     0.069088
  1 O s       :     3.770975  s :     3.770975
      pz      :     1.266600  p :     4.451027
      px      :     1.823646
      py      :     1.360781
      dz2     :     0.001918  d :     0.016403
      dxz     :     0.000024
      dyz     :     0.004935
      dx2y2   :     0.005962
      dxy     :     0.003564
  2 C s       :     3.122425  s :     3.122425
      pz      :     0.996109  p :     2.927798
      px      :     1.001103
      py      :     0.930586
      dz2     :     0.003042  d :     0.066524
      dxz     :     0.008960
      dyz     :     0.003588
      dx2y2   :     0.027044
      dxy     :     0.023891
  3 C s       :     3.025098  s :     3.025098
      pz      :     0.870388  p :     2.798775
      px      :     1.009200
      py      :     0.919187
      dz2     :     0.000550  d :     0.047263
      dxz     :     0.008284
      dyz     :     0.002219
      dx2y2   :     0.015643
      dxy     :     0.020568
  4 H s       :     1.041585  s :     1.041585
      pz      :     0.005667  p :     0.031175
      px      :     0.018170
      py      :     0.007338
  5 H s       :     0.981932  s :     0.981932
      pz      :     0.005945  p :     0.029228
      px      :     0.004654
      py      :     0.018630
  6 H s       :     0.956956  s :     0.956956
      pz      :     0.006487  p :     0.034199
      px      :     0.007972
      py      :     0.019740
  7 H s       :     0.943894  s :     0.943894
      pz      :     0.004830  p :     0.028630
      px      :     0.012850
      py      :     0.010950


                     *******************************
                     * LOEWDIN POPULATION ANALYSIS *
                     *******************************

----------------------
LOEWDIN ATOMIC CHARGES
----------------------
   0 C :    0.002553
   1 O :   -0.044057
   2 C :   -0.074312
   3 C :    0.054741
   4 H :   -0.031572
   5 H :    0.034518
   6 H :    0.016242
   7 H :    0.041888

-------------------------------
LOEWDIN REDUCED ORBITAL CHARGES
-------------------------------
  0 C s       :     2.808727  s :     2.808727
      pz      :     0.764986  p :     2.810311
      px      :     1.057620
      py      :     0.987705
      dz2     :     0.021840  d :     0.378409
      dxz     :     0.016217
      dyz     :     0.055535
      dx2y2   :     0.098992
      dxy     :     0.185824
  1 O s       :     3.524900  s :     3.524900
      pz      :     1.250735  p :     4.491549
      px      :     1.788618
      py      :     1.452195
      dz2     :     0.003858  d :     0.027608
      dxz     :     0.000021
      dyz     :     0.005609
      dx2y2   :     0.011810
      dxy     :     0.006310
  2 C s       :     2.813093  s :     2.813093
      pz      :     0.946302  p :     3.048689
      px      :     1.077822
      py      :     1.024565
      dz2     :     0.016023  d :     0.212531
      dxz     :     0.024616
      dyz     :     0.007720
      dx2y2   :     0.085704
      dxy     :     0.078469
  3 C s       :     2.823156  s :     2.823156
      pz      :     0.846101  p :     2.962000
      px      :     1.062623
      py      :     1.053275
      dz2     :     0.010866  d :     0.160103
      dxz     :     0.019182
      dyz     :     0.005848
      dx2y2   :     0.053200
      dxy     :     0.071006
  4 H s       :     0.920198  s :     0.920198
      pz      :     0.021717  p :     0.111374
      px      :     0.058309
      py      :     0.031348
  5 H s       :     0.883476  s :     0.883476
      pz      :     0.017967  p :     0.082006
      px      :     0.015929
      py      :     0.048110
  6 H s       :     0.883132  s :     0.883132
      pz      :     0.020721  p :     0.100626
      px      :     0.023638
      py      :     0.056267
  7 H s       :     0.886235  s :     0.886235
      pz      :     0.013877  p :     0.071877
      px      :     0.030720
      py      :     0.027280


                      *****************************
                      * MAYER POPULATION ANALYSIS *
                      *****************************

  NA   - Mulliken gross atomic population
  ZA   - Total nuclear charge
  QA   - Mulliken gross atomic charge
  VA   - Mayer's total valence
  BVA  - Mayer's bonded valence
  FA   - Mayer's free valence

  ATOM       NA         ZA         QA         VA         BVA        FA
  0 C      5.7261     6.0000     0.2739     4.2472     4.2472     0.0000
  1 O      8.2384     8.0000    -0.2384     2.2890     2.2890    -0.0000
  2 C      6.1167     6.0000    -0.1167     4.0664     4.0664    -0.0000
  3 C      5.8711     6.0000     0.1289     3.9797     3.9797     0.0000
  4 H      1.0728     1.0000    -0.0728     0.9536     0.9536     0.0000
  5 H      1.0112     1.0000    -0.0112     0.9760     0.9760     0.0000
  6 H      0.9912     1.0000     0.0088     0.9962     0.9962    -0.0000
  7 H      0.9725     1.0000     0.0275     0.9690     0.9690    -0.0000

  Mayer bond orders larger than 0.100000
B(  0-C ,  1-O ) :   2.1523 B(  0-C ,  2-C ) :   1.1288 B(  0-C ,  4-H ) :   0.9376 
B(  1-O ,  3-C ) :   0.1121 B(  2-C ,  3-C ) :   1.9515 B(  2-C ,  5-H ) :   0.9371 
B(  3-C ,  6-H ) :   0.9475 B(  3-C ,  7-H ) :   0.9380 

-------
TIMINGS
-------

Total SCF time: 0 days 0 hours 2 min 46 sec 

Total time                  ....     166.895 sec
Sum of individual times     ....     141.722 sec  ( 84.9%)

Fock matrix formation       ....     132.006 sec  ( 79.1%)
  Split-RI-J                ....       0.959 sec  (  0.7% of F)
  Chain of spheres X        ....       8.933 sec  (  6.8% of F)
  XC integration            ....      46.124 sec  ( 34.9% of F)
    Basis function eval.    ....       1.804 sec  (  3.9% of XC)
    Density eval.           ....       0.713 sec  (  1.5% of XC)
    XC-Functional eval.     ....       0.667 sec  (  1.4% of XC)
    XC-Potential eval.      ....       0.637 sec  (  1.4% of XC)
Diagonalization             ....       0.007 sec  (  0.0%)
Density matrix formation    ....       0.001 sec  (  0.0%)
Population analysis         ....       0.062 sec  (  0.0%)
Initial guess               ....       1.001 sec  (  0.6%)
Orbital Transformation      ....       0.000 sec  (  0.0%)
Orbital Orthonormalization  ....       0.000 sec  (  0.0%)
DIIS solution               ....       0.134 sec  (  0.1%)
SOSCF solution              ....       0.005 sec  (  0.0%)
Grid generation             ....       8.506 sec  (  5.1%)

Maximum memory used throughout the entire SCF-calculation: 51.7 MB
------------------------------------------------------------------------------
                        ORCA TD-DFT/TDA CALCULATION
------------------------------------------------------------------------------

Input orbitals are from        ... acrolien.1116.gbw
CI-vector output               ... acrolien.1116.cis
Tamm-Dancoff approximation     ... operative
CIS-Integral strategy          ... AO-integrals
Integral handling              ... AO integral Direct
Max. core memory used          ... 512 MB
Reference state                ... RHF
Generation of triplets         ... off
Follow IRoot                   ... off
Number of operators            ... 1
Orbital ranges used for CIS calculation:
 Operator 0:  Orbitals   4... 14  to  15... 75
XAS localization array:
 Operator 0:  Orbitals  -1... -1

-------------------
XC-INTEGRATION GRID
-------------------

General Integration Accuracy     IntAcc      ... 3.467
Radial Grid Type                 RadialGrid  ... OptM3 with GC (2021)
Angular Grid (max. ang.)         AngularGrid ... 1 (Lebedev-50)
Angular grid pruning method      GridPruning ... 4 (adaptive)
Weight generation scheme         WeightScheme... Becke
Basis function cutoff            BFCut       ... 1.0000e-11
Integration weight cutoff        WCut        ... 1.0000e-14
Angular grids for H and He will be reduced by one unit
Partially contracted basis set               ... off
Rotationally invariant grid construction     ... off

Total number of grid points                  ...     5484
Total number of batches                      ...       90
Average number of points per batch           ...       60
Average number of grid points per atom       ...      686

---------------------
COSX-INTEGRATION GRID
---------------------

General Integration Accuracy     IntAcc      ... 3.067
Radial Grid Type                 RadialGrid  ... OptM3 with GC (2021)
Angular Grid (max. ang.)         AngularGrid ... 1 (Lebedev-50)
Angular grid pruning method      GridPruning ... 4 (adaptive)
Weight generation scheme         WeightScheme... Becke
Basis function cutoff            BFCut       ... 1.0000e-11
Integration weight cutoff        WCut        ... 1.0000e-14
Angular grids for H and He will be reduced by one unit
Partially contracted basis set               ... on
Rotationally invariant grid construction     ... off

Total number of grid points                  ...     2501
Total number of batches                      ...       45
Average number of points per batch           ...       55
Average number of grid points per atom       ...      313

---------------
TD-DFT XC SETUP
---------------

DFT calculation                         ... on
Name of the grid file                   ... acrolien.1116.grid_cis.tmp
Exchange functional (TD-DFT)            ... B88
   X-Alpha parameter    XAlpha (TD-DFT) ...  0.666667
   Becke's b parameter  XBeta (TD-DFT)  ...  0.004200
Correlation functional (TD-DFT)         ... LYP
 LDA part of GGA corr.  LDAOpt (TD-DFT) ... VWN-5
Hybrid DFT                              ... on
   Exchange mixing (TD-DFT)             ...  0.200
   GGA exch. scaling (TD-DFT)           ...  0.720
   GGA corr. scaling (TD-DFT)           ...  0.810

Building densities             ... done
Calculating rho(r) on the grid ... done
Building xc-kernel on the grid ... done
                    *** TD-DFT CALCULATION INITIALIZED ***

------------------------
DAVIDSON-DIAGONALIZATION
------------------------

Dimension of the eigenvalue problem            ...    671
Number of roots to be determined               ...      1
Maximum size of the expansion space            ...     10
Maximum number of iterations                   ...    100
Convergence tolerance for the residual         ...    2.500e-07
Convergence tolerance for the energies         ...    2.500e-07
Orthogonality tolerance                        ...    1.000e-14
Level Shift                                    ...    0.000e+00
Constructing the preconditioner                ... o.k.
Building the initial guess                     ... o.k.
Number of trial vectors determined             ...     10


                       ****Iteration    0****

   Memory handling for direct AO based CIS:
   Memory per vector needed      ...     1 MB
   Memory needed                 ...     0 MB
   Memory available              ...   512 MB
   Number of vectors per batch   ...   512
   Number of batches             ...     1
   Time for densities:            0.000
   Time for RI-J (Direct):        0.069
   Time for K (COSX):             2.357
   Time for XC-Integration:       0.081
   Time for Sigma-Completion:     0.000
   Size of expansion space: 3
   Lowest Energy          :     0.115436797157
   Maximum Energy change  :     0.115436797157 (vector 0)
   Maximum residual norm  :     0.001256867306

                       ****Iteration    1****
   Time for densities:            0.000
   Time for RI-J (Direct):        0.056
   Time for K (COSX):             1.996
   Time for XC-Integration:       0.042
   Time for Sigma-Completion:     0.000
   Size of expansion space: 4
   Lowest Energy          :     0.112801217807
   Maximum Energy change  :     0.002635579350 (vector 0)
   Maximum residual norm  :     0.000099050874

                       ****Iteration    2****
   Time for densities:            0.000
   Time for RI-J (Direct):        0.055
   Time for K (COSX):             0.193
   Time for XC-Integration:       0.043
   Time for Sigma-Completion:     0.000
   Size of expansion space: 5
   Lowest Energy          :     0.112701179565
   Maximum Energy change  :     0.000100038242 (vector 0)
   Maximum residual norm  :     0.000004256765

                       ****Iteration    3****
   Time for densities:            0.000
   Time for RI-J (Direct):        0.055
   Time for K (COSX):             2.351
   Time for XC-Integration:       0.043
   Time for Sigma-Completion:     0.000
   Size of expansion space: 6
   Lowest Energy          :     0.112697782144
   Maximum Energy change  :     0.000003397421 (vector 0)
   Maximum residual norm  :     0.000000553023

                       ****Iteration    4****
   Time for densities:            0.000
   Time for RI-J (Direct):        0.055
   Time for K (COSX):             2.743
   Time for XC-Integration:       0.043
   Time for Sigma-Completion:     0.000
   Size of expansion space: 7
   Lowest Energy          :     0.112697255427
   Maximum Energy change  :     0.000000526717 (vector 0)
   Maximum residual norm  :     0.000000031024

      *** CONVERGENCE OF RESIDUAL NORM REACHED ***

Storing the converged CI vectors               ... acrolien.1116.cis1

                 *** DAVIDSON DONE ***

Total time for solving the CIS problem:    13.214sec

------------------------------------
TD-DFT/TDA EXCITED STATES (SINGLETS)
------------------------------------

the weight of the individual excitations are printed if larger than 1.0e-02

STATE  1:  E=   0.112697 au      3.067 eV    24734.2 cm**-1 <S**2> =   0.000000
    14a ->  15a  :     0.985498 (c=  0.99272236)
    14a ->  17a  :     0.012835 (c= -0.11329162)


-----------------------------
TD-DFT/TDA-EXCITATION SPECTRA
-----------------------------

Center of mass = (  0.5767, -0.9080,  0.0003)
Calculating the Dipole integrals                  ... done
Transforming integrals                            ... done
Calculating the Linear Momentum integrals         ... done
Transforming integrals                            ... done
Calculating angular momentum integrals            ... done
Transforming integrals                            ... done

-----------------------------------------------------------------------------
         ABSORPTION SPECTRUM VIA TRANSITION ELECTRIC DIPOLE MOMENTS
-----------------------------------------------------------------------------
State   Energy    Wavelength  fosc         T2        TX        TY        TZ  
        (cm-1)      (nm)                 (au**2)    (au)      (au)      (au) 
-----------------------------------------------------------------------------
   1   24734.2    404.3   0.000028872   0.00038  -0.00281   0.00434  -0.01891

-----------------------------------------------------------------------------
         ABSORPTION SPECTRUM VIA TRANSITION VELOCITY DIPOLE MOMENTS
-----------------------------------------------------------------------------
State   Energy    Wavelength   fosc        P2         PX        PY        PZ  
        (cm-1)      (nm)                 (au**2)     (au)      (au)      (au) 
-----------------------------------------------------------------------------
   1   24734.2    404.3   0.000905964   0.00015   0.00311   0.00004   0.01198

-------------------------------------------------------------------
                             CD SPECTRUM
-------------------------------------------------------------------
State  Energy     Wavelength     R         MX        MY        MZ   
       (cm-1)       (nm)     (1e40*cgs)   (au)      (au)      (au)  
-------------------------------------------------------------------
   1   24734.2    404.3     -0.92048  -0.07781  -0.37191   0.02950

-------------------------------------------------------------------
         CD SPECTRUM VIA TRANSITION VELOCITY DIPOLE MOMENTS        
-------------------------------------------------------------------
State  Energy     Wavelength     R         MX        MY        MZ   
       (cm-1)       (nm)     (1e40*cgs)   (au)      (au)      (au)  
-------------------------------------------------------------------
   1   24734.2    404.3      0.39644  -0.07781  -0.37191   0.02950

Total run time:       20.537 sec

           *** ORCA-CIS/TD-DFT FINISHED WITHOUT ERROR ***

Maximum memory used throughout the entire CIS-calculation: 48.6 MB

-----------------------
CIS/TD-DFT TOTAL ENERGY
-----------------------

    E(SCF)  =   -191.772935179 Eh
    DE(CIS) =      0.112697255 Eh (Root  1)
    ----------------------------- ---------
    E(tot)  =   -191.660237923 Eh


-------------------------   --------------------
FINAL SINGLE POINT ENERGY      -191.660237923077
-------------------------   --------------------


                            ***************************************
                            *     ORCA property calculations      *
                            ***************************************

                                    ---------------------
                                    Active property flags
                                    ---------------------
   (+) Dipole Moment


------------------------------------------------------------------------------
                       ORCA ELECTRIC PROPERTIES CALCULATION
------------------------------------------------------------------------------

Dipole Moment Calculation                       ... on
Quadrupole Moment Calculation                   ... off
Polarizability Calculation                      ... off
GBWName                                         ... acrolien.1116.gbw
Electron density                                ... acrolien.1116.scfp
The origin for moment calculation is the CENTER OF MASS  = ( 0.576692, -0.908013  0.000298)

-------------
DIPOLE MOMENT
-------------
                                X             Y             Z
Electronic contribution:     -2.00928      -1.73174       0.16005
Nuclear contribution   :      2.47195       2.73004      -0.21021
                        -----------------------------------------
Total Dipole Moment    :      0.46267       0.99830      -0.05016
                        -----------------------------------------
Magnitude (a.u.)       :      1.10144
Magnitude (Debye)      :      2.79965



--------------------
Rotational spectrum 
--------------------
 
Rotational constants in cm-1:     0.790017     0.211752     0.167172 
Rotational constants in MHz : 23684.112302  6348.151553  5011.696703 

 Dipole components along the rotational axes: 
x,y,z [a.u.] :    -0.927924     0.591238    -0.050737 
x,y,z [Debye]:    -2.358597     1.502809    -0.128964 

 

Timings for individual modules:

Sum of individual times         ...      194.115 sec (=   3.235 min)
GTO integral calculation        ...        6.663 sec (=   0.111 min)   3.4 %
SCF iterations                  ...      166.906 sec (=   2.782 min)  86.0 %
CIS module                      ...       20.545 sec (=   0.342 min)  10.6 %
                             ****ORCA TERMINATED NORMALLY****
TOTAL RUN TIME: 0 days 0 hours 3 minutes 20 seconds 518 msec
