
                                 *****************
                                 * O   R   C   A *
                                 *****************

                                            #,                                       
                                            ###                                      
                                            ####                                     
                                            #####                                    
                                            ######                                   
                                           ########,                                 
                                     ,,################,,,,,                         
                               ,,#################################,,                 
                          ,,##########################################,,             
                       ,#########################################, ''#####,          
                    ,#############################################,,   '####,        
                  ,##################################################,,,,####,       
                ,###########''''           ''''###############################       
              ,#####''   ,,,,##########,,,,          '''####'''          '####       
            ,##' ,,,,###########################,,,                        '##       
           ' ,,###''''                  '''############,,,                           
         ,,##''                                '''############,,,,        ,,,,,,###''
      ,#''                                            '''#######################'''  
     '                                                          ''''####''''         
             ,#######,   #######,   ,#######,      ##                                
            ,#'     '#,  ##    ##  ,#'     '#,    #''#        ######   ,####,        
            ##       ##  ##   ,#'  ##            #'  '#       #        #'  '#        
            ##       ##  #######   ##           ,######,      #####,   #    #        
            '#,     ,#'  ##    ##  '#,     ,#' ,#      #,         ##   #,  ,#        
             '#######'   ##     ##  '#######'  #'      '#     #####' # '####'        



                  #######################################################
                  #                        -***-                        #
                  #          Department of theory and spectroscopy      #
                  #    Directorship and core code : Frank Neese         #
                  #        Max Planck Institute fuer Kohlenforschung    #
                  #                Kaiser Wilhelm Platz 1               #
                  #                 D-45470 Muelheim/Ruhr               #
                  #                      Germany                        #
                  #                                                     #
                  #                  All rights reserved                #
                  #                        -***-                        #
                  #######################################################


                         Program Version 5.0.3 -  RELEASE  -


 With contributions from (in alphabetic order):
   Daniel Aravena         : Magnetic Suceptibility
   Michael Atanasov       : Ab Initio Ligand Field Theory (pilot matlab implementation)
   Alexander A. Auer      : GIAO ZORA, VPT2 properties, NMR spectrum
   Ute Becker             : Parallelization
   Giovanni Bistoni       : ED, misc. LED, open-shell LED, HFLD
   Martin Brehm           : Molecular dynamics
   Dmytro Bykov           : SCF Hessian
   Vijay G. Chilkuri      : MRCI spin determinant printing, contributions to CSF-ICE
   Dipayan Datta          : RHF DLPNO-CCSD density
   Achintya Kumar Dutta   : EOM-CC, STEOM-CC
   Dmitry Ganyushin       : Spin-Orbit,Spin-Spin,Magnetic field MRCI
   Miquel Garcia          : C-PCM and meta-GGA Hessian, CC/C-PCM, Gaussian charge scheme
   Yang Guo               : DLPNO-NEVPT2, F12-NEVPT2, CIM, IAO-localization
   Andreas Hansen         : Spin unrestricted coupled pair/coupled cluster methods
   Benjamin Helmich-Paris : MC-RPA, TRAH-SCF, COSX integrals
   Lee Huntington         : MR-EOM, pCC
   Robert Izsak           : Overlap fitted RIJCOSX, COSX-SCS-MP3, EOM
   Marcus Kettner         : VPT2
   Christian Kollmar      : KDIIS, OOCD, Brueckner-CCSD(T), CCSD density, CASPT2, CASPT2-K
   Simone Kossmann        : Meta GGA functionals, TD-DFT gradient, OOMP2, MP2 Hessian
   Martin Krupicka        : Initial AUTO-CI
   Lucas Lang             : DCDCAS
   Marvin Lechner         : AUTO-CI (C++ implementation), FIC-MRCC
   Dagmar Lenk            : GEPOL surface, SMD
   Dimitrios Liakos       : Extrapolation schemes; Compound Job, initial MDCI parallelization
   Dimitrios Manganas     : Further ROCIS development; embedding schemes
   Dimitrios Pantazis     : SARC Basis sets
   Anastasios Papadopoulos: AUTO-CI, single reference methods and gradients
   Taras Petrenko         : DFT Hessian,TD-DFT gradient, ASA, ECA, R-Raman, ABS, FL, XAS/XES, NRVS
   Peter Pinski           : DLPNO-MP2, DLPNO-MP2 Gradient
   Christoph Reimann      : Effective Core Potentials
   Marius Retegan         : Local ZFS, SOC
   Christoph Riplinger    : Optimizer, TS searches, QM/MM, DLPNO-CCSD(T), (RO)-DLPNO pert. Triples
   Tobias Risthaus        : Range-separated hybrids, TD-DFT gradient, RPA, STAB
   Michael Roemelt        : Original ROCIS implementation
   Masaaki Saitow         : Open-shell DLPNO-CCSD energy and density
   Barbara Sandhoefer     : DKH picture change effects
   Avijit Sen             : IP-ROCIS
   Kantharuban Sivalingam : CASSCF convergence, NEVPT2, FIC-MRCI
   Bernardo de Souza      : ESD, SOC TD-DFT
   Georgi Stoychev        : AutoAux, RI-MP2 NMR, DLPNO-MP2 response
   Willem Van den Heuvel  : Paramagnetic NMR
   Boris Wezisla          : Elementary symmetry handling
   Frank Wennmohs         : Technical directorship


 We gratefully acknowledge several colleagues who have allowed us to
 interface, adapt or use parts of their codes:
   Stefan Grimme, W. Hujo, H. Kruse, P. Pracht,  : VdW corrections, initial TS optimization,
                  C. Bannwarth, S. Ehlert          DFT functionals, gCP, sTDA/sTD-DF
   Ed Valeev, F. Pavosevic, A. Kumar             : LibInt (2-el integral package), F12 methods
   Garnet Chan, S. Sharma, J. Yang, R. Olivares  : DMRG
   Ulf Ekstrom                                   : XCFun DFT Library
   Mihaly Kallay                                 : mrcc  (arbitrary order and MRCC methods)
   Jiri Pittner, Ondrej Demel                    : Mk-CCSD
   Frank Weinhold                                : gennbo (NPA and NBO analysis)
   Christopher J. Cramer and Donald G. Truhlar   : smd solvation model
   Lars Goerigk                                  : TD-DFT with DH, B97 family of functionals
   V. Asgeirsson, H. Jonsson                     : NEB implementation
   FAccTs GmbH                                   : IRC, NEB, NEB-TS, DLPNO-Multilevel, CI-OPT
                                                   MM, QMMM, 2- and 3-layer-ONIOM, Crystal-QMMM,
                                                   LR-CPCM, SF, NACMEs, symmetry and pop. for TD-DFT,
                                                   nearIR, NL-DFT gradient (VV10), updates on ESD,
                                                   ML-optimized integration grids
   S Lehtola, MJT Oliveira, MAL Marques          : LibXC Library
   Liviu Ungur et al                             : ANISO software


 Your calculation uses the libint2 library for the computation of 2-el integrals
 For citations please refer to: http://libint.valeyev.net

 Your ORCA version has been built with support for libXC version: 5.1.0
 For citations please refer to: https://tddft.org/programs/libxc/

 This ORCA versions uses:
   CBLAS   interface :  Fast vector & matrix operations
   LAPACKE interface :  Fast linear algebra routines
   SCALAPACK package :  Parallel linear algebra routines
   Shared memory     :  Shared parallel matrices
   BLAS/LAPACK       :  OpenBLAS 0.3.15  USE64BITINT DYNAMIC_ARCH NO_AFFINITY Haswell SINGLE_THREADED
        Core in use  :  Haswell
   Copyright (c) 2011-2014, The OpenBLAS Project


================================================================================

----- Orbital basis set information -----
Your calculation utilizes the basis: cc-pVDZ 
       H, B-Ne : Obtained from the ccRepo (grant-hill.group.shef.ac.uk/ccrepo) Feb. 2017
                 T. H. Dunning, Jr., J. Chem. Phys. 90, 1007 (1989)
            He : Obtained from the ccRepo (grant-hill.group.shef.ac.uk/ccrepo) Feb. 2017
                 D. E. Woon, T. H. Dunning, Jr., J. Chem. Phys. 100, 2975 (1994)
  Li-Be, Na-Mg : Obtained from the ccRepo (grant-hill.group.shef.ac.uk/ccrepo) Feb. 2017
                 B. P. Prascher, D. E. Woon, K. A. Peterson, T. H. Dunning, Jr., A. K. Wilson, Theor. Chem. Acc. 128, 69 (2011)
         Al-Ar : Obtained from the ccRepo (grant-hill.group.shef.ac.uk/ccrepo) Feb. 2017
                 D. E. Woon, T. H. Dunning, Jr., J. Chem. Phys. 98, 1358 (1993)
            Ca : Obtained from the Peterson Research Group Website (tyr0.chem.wsu.edu/~kipeters) Feb. 2017
                 J. Koput, K. A. Peterson, J. Phys. Chem. 106, 9595 (2002)
         Sc-Zn : Obtained from the ccRepo (grant-hill.group.shef.ac.uk/ccrepo) Feb. 2017
                 N. B. Balabanov, K. A. Peterson, J. Chem. Phys. 123, 064107 (2005)
                 N. B. Balabanov, K. A. Peterson, J. Chem. Phys. 125, 074110 (2006)
         Ga-Kr : Obtained from the ccRepo (grant-hill.group.shef.ac.uk/ccrepo) Feb. 2017
                 A. K. Wilson, D. E. Woon, K. A. Peterson, T. H. Dunning, Jr., J. Chem. Phys. 110, 7667 (1999)

----- AuxJ basis set information -----
Your calculation utilizes the auxiliary basis: def2/J
   F. Weigend, Phys. Chem. Chem. Phys. 8, 1057 (2006).

================================================================================
                                        WARNINGS
                       Please study these warnings very carefully!
================================================================================

INFO   : Checking CIS options ...

INFO   : the flag for use of the SHARK integral package has been found!

================================================================================
                                       INPUT FILE
================================================================================
NAME = acrolien.371.com
|  1> ! B3LYP cc-pVDZ
|  2> !TightSCF
|  3> %scf
|  4>  ConvForced true
|  5>  convergence tight
|  6>  MaxIter 500
|  7> end
|  8>  
|  9> %tddft 
| 10>  nroots 1
| 11> end
| 12> 
| 13> # 	10468
| 14> * xyz 0 1
| 15> 		C   -1.186704  -0.280032  -0.043818
| 16> 		O   -1.660606  -1.050801  -0.815736
| 17> 		C    0.055850   0.471086  -0.250317
| 18> 		C    1.245295   0.067456   0.168094
| 19> 		H   -1.652880  -0.269033   0.965364
| 20> 		H   -0.073616   1.394318  -0.698528
| 21> 		H    1.213444  -0.822589   0.643232
| 22> 		H    2.036332   0.582826   0.027764
| 23> *
| 24> 
| 25>                          ****END OF INPUT****
================================================================================

                       ****************************
                       * Single Point Calculation *
                       ****************************

---------------------------------
CARTESIAN COORDINATES (ANGSTROEM)
---------------------------------
  C     -1.186704   -0.280032   -0.043818
  O     -1.660606   -1.050801   -0.815736
  C      0.055850    0.471086   -0.250317
  C      1.245295    0.067456    0.168094
  H     -1.652880   -0.269033    0.965364
  H     -0.073616    1.394318   -0.698528
  H      1.213444   -0.822589    0.643232
  H      2.036332    0.582826    0.027764

----------------------------
CARTESIAN COORDINATES (A.U.)
----------------------------
  NO LB      ZA    FRAG     MASS         X           Y           Z
   0 C     6.0000    0    12.011   -2.242546   -0.529184   -0.082804
   1 O     8.0000    0    15.999   -3.138091   -1.985726   -1.541518
   2 C     6.0000    0    12.011    0.105541    0.890224   -0.473031
   3 C     6.0000    0    12.011    2.353267    0.127473    0.317652
   4 H     1.0000    0     1.008   -3.123491   -0.508399    1.824274
   5 H     1.0000    0     1.008   -0.139114    2.634879   -1.320027
   6 H     1.0000    0     1.008    2.293077   -1.554468    1.215532
   7 H     1.0000    0     1.008    3.848110    1.101382    0.052466

--------------------------------
INTERNAL COORDINATES (ANGSTROEM)
--------------------------------
 C      0   0   0     0.000000000000     0.00000000     0.00000000
 O      1   0   0     1.189338200719     0.00000000     0.00000000
 C      1   2   0     1.466547145455   125.31915531     0.00000000
 C      3   1   2     1.323920069281   124.09439424   266.48295897
 H      1   2   3     1.111705604061   115.37248053   190.11961925
 H      3   1   2     1.034413781570   114.33600404    90.69931903
 H      4   3   1     1.009430882859   112.90648384     0.42915918
 H      4   3   1     0.954483253478   122.24214750   180.71069590

---------------------------
INTERNAL COORDINATES (A.U.)
---------------------------
 C      0   0   0     0.000000000000     0.00000000     0.00000000
 O      1   0   0     2.247523479969     0.00000000     0.00000000
 C      1   2   0     2.771372467393   125.31915531     0.00000000
 C      3   1   2     2.501846354144   124.09439424   266.48295897
 H      1   2   3     2.100819133221   115.37248053   190.11961925
 H      3   1   2     1.954758756320   114.33600404    90.69931903
 H      4   3   1     1.907547919726   112.90648384     0.42915918
 H      4   3   1     1.803711948487   122.24214750   180.71069590

---------------------
BASIS SET INFORMATION
---------------------
There are 3 groups of distinct atoms

 Group   1 Type C   : 17s4p1d contracted to 3s2p1d pattern {881/31/1}
 Group   2 Type O   : 17s4p1d contracted to 3s2p1d pattern {881/31/1}
 Group   3 Type H   : 4s1p contracted to 2s1p pattern {31/1}

Atom   0C    basis set group =>   1
Atom   1O    basis set group =>   2
Atom   2C    basis set group =>   1
Atom   3C    basis set group =>   1
Atom   4H    basis set group =>   3
Atom   5H    basis set group =>   3
Atom   6H    basis set group =>   3
Atom   7H    basis set group =>   3
---------------------------------
AUXILIARY/J BASIS SET INFORMATION
---------------------------------
There are 3 groups of distinct atoms

 Group   1 Type C   : 12s5p4d2f1g contracted to 6s4p3d1f1g pattern {711111/2111/211/2/1}
 Group   2 Type O   : 12s5p4d2f1g contracted to 6s4p3d1f1g pattern {711111/2111/211/2/1}
 Group   3 Type H   : 5s2p1d contracted to 3s1p1d pattern {311/2/1}

Atom   0C    basis set group =>   1
Atom   1O    basis set group =>   2
Atom   2C    basis set group =>   1
Atom   3C    basis set group =>   1
Atom   4H    basis set group =>   3
Atom   5H    basis set group =>   3
Atom   6H    basis set group =>   3
Atom   7H    basis set group =>   3
------------------------------------------------------------------------------
                           ORCA GTO INTEGRAL CALCULATION
                           -- RI-GTO INTEGRALS CHOSEN --
------------------------------------------------------------------------------
------------------------------------------------------------------------------
                   ___                                                        
                  /   \      - P O W E R E D   B Y -                         
                 /     \                                                     
                 |  |  |   _    _      __       _____    __    __             
                 |  |  |  | |  | |    /  \     |  _  \  |  |  /  |          
                  \  \/   | |  | |   /    \    | | | |  |  | /  /          
                 / \  \   | |__| |  /  /\  \   | |_| |  |  |/  /          
                |  |  |   |  __  | /  /__\  \  |    /   |      \           
                |  |  |   | |  | | |   __   |  |    \   |  |\   \          
                \     /   | |  | | |  |  |  |  | |\  \  |  | \   \       
                 \___/    |_|  |_| |__|  |__|  |_| \__\ |__|  \__/        
                                                                              
                      - O R C A' S   B I G   F R I E N D -                    
                                      &                                       
                       - I N T E G R A L  F E E D E R -                       
                                                                              
 v1 FN, 2020, v2 2021                                                         
------------------------------------------------------------------------------


Reading SHARK input file acrolien.371.SHARKINP.tmp ... ok
----------------------
SHARK INTEGRAL PACKAGE
----------------------

Number of atoms                             ...      8
Number of basis functions                   ...    100
Number of shells                            ...     60
Maximum angular momentum                    ...      2
Integral batch strategy                     ... SHARK/LIBINT Hybrid
RI-J (if used) integral strategy            ... SPLIT-RIJ (Revised 2003 algorithm where possible)
Printlevel                                  ...      1
Contraction scheme used                     ... PARTIAL GENERAL contraction
Coulomb Range Separation                    ... NOT USED
Exchange Range Separation                   ... NOT USED
Finite Nucleus Model                        ... NOT USED
Auxiliary Coulomb fitting basis             ... AVAILABLE
   # of basis functions in Aux-J            ...    240
   # of shells in Aux-J                     ...     80
   Maximum angular momentum in Aux-J        ...      4
Auxiliary J/K fitting basis                 ... NOT available
Auxiliary Correlation fitting basis         ... NOT available
Auxiliary 'external' fitting basis          ... NOT available
Integral threshold                          ...     2.500000e-11
Primitive cut-off                           ...     2.500000e-12
Primitive pair pre-selection threshold      ...     2.500000e-12

Calculating pre-screening integrals         ... done (  0.0 sec) Dimension = 60
Calculating pre-screening integrals (ORCA)  ... done (  0.1 sec) Dimension = 36
Organizing shell pair data                  ... done (  0.0 sec)
Shell pair information
Total number of shell pairs                 ...      1830
Shell pairs after pre-screening             ...      1535
Total number of primitive shell pairs       ...      2950
Primitive shell pairs kept                  ...      2308
          la=0 lb=0:    723 shell pairs
          la=1 lb=0:    507 shell pairs
          la=1 lb=1:     78 shell pairs
          la=2 lb=0:    169 shell pairs
          la=2 lb=1:     48 shell pairs
          la=2 lb=2:     10 shell pairs

Calculating one electron integrals          ... done (  0.0 sec)
Calculating RI/J V-Matrix + Cholesky decomp.... done (  0.8 sec)
Calculating Nuclear repulsion               ... done (  0.1 sec) ENN=    105.488713789117 Eh

SHARK setup successfully completed in   2.2 seconds

Maximum memory used throughout the entire GTOINT-calculation: 14.2 MB
-------------------------------------------------------------------------------
                                 ORCA SCF
-------------------------------------------------------------------------------

------------
SCF SETTINGS
------------
Hamiltonian:
 Density Functional     Method          .... DFT(GTOs)
 Exchange Functional    Exchange        .... B88
   X-Alpha parameter    XAlpha          ....  0.666667
   Becke's b parameter  XBeta           ....  0.004200
 Correlation Functional Correlation     .... LYP
 LDA part of GGA corr.  LDAOpt          .... VWN-5
 Gradients option       PostSCFGGA      .... off
 Hybrid DFT is turned on
   Fraction HF Exchange ScalHFX         ....  0.200000
   Scaling of DF-GGA-X  ScalDFX         ....  0.720000
   Scaling of DF-GGA-C  ScalDFC         ....  0.810000
   Scaling of DF-LDA-C  ScalLDAC        ....  1.000000
   Perturbative correction              ....  0.000000
   Density functional embedding theory  .... OFF
   NL short-range parameter             ....  4.800000
 RI-approximation to the Coulomb term is turned on
   Number of AuxJ basis functions       .... 240
   RIJ-COSX (HFX calculated with COS-X)).... on


General Settings:
 Integral files         IntName         .... acrolien.371
 Hartree-Fock type      HFTyp           .... RHF
 Total Charge           Charge          ....    0
 Multiplicity           Mult            ....    1
 Number of Electrons    NEL             ....   30
 Basis Dimension        Dim             ....   76
 Nuclear Repulsion      ENuc            ....    105.4887137891 Eh

Convergence Acceleration:
 DIIS                   CNVDIIS         .... on
   Start iteration      DIISMaxIt       ....    12
   Startup error        DIISStart       ....  0.200000
   # of expansion vecs  DIISMaxEq       ....     5
   Bias factor          DIISBfac        ....   1.050
   Max. coefficient     DIISMaxC        ....  10.000
 Trust-Rad. Augm. Hess. CNVTRAH         .... auto
   Auto Start mean grad. ratio tolernc. ....  1.125000
   Auto Start start iteration           ....    20
   Auto Start num. interpolation iter.  ....    10
   Max. Number of Micro iterations      ....    16
   Max. Number of Macro iterations      .... Maxiter - #DIIS iter
   Number of Davidson start vectors     ....     2
   Converg. threshold I  (grad. norm)   ....   1.000e-05
   Converg. threshold II (energy diff.) ....   1.000e-08
   Grad. Scal. Fac. for Micro threshold ....   0.100
   Minimum threshold for Micro iter.    ....   0.010
   NR start threshold (gradient norm)   ....   0.001
   Initial trust radius                 ....   0.400
   Minimum AH scaling param. (alpha)    ....   1.000
   Maximum AH scaling param. (alpha)    .... 1000.000
   Orbital update algorithm             .... Taylor
   White noise on init. David. guess    .... on
   Maximum white noise                  ....   0.010
   Quad. conv. algorithm                .... NR
 SOSCF                  CNVSOSCF        .... on
   Start iteration      SOSCFMaxIt      ....   150
   Startup grad/error   SOSCFStart      ....  0.003300
 Level Shifting         CNVShift        .... on
   Level shift para.    LevelShift      ....    0.2500
   Turn off err/grad.   ShiftErr        ....    0.0010
 Zerner damping         CNVZerner       .... off
 Static damping         CNVDamp         .... on
   Fraction old density DampFac         ....    0.7000
   Max. Damping (<1)    DampMax         ....    0.9800
   Min. Damping (>=0)   DampMin         ....    0.0000
   Turn off err/grad.   DampErr         ....    0.1000
 Fernandez-Rico         CNVRico         .... off

SCF Procedure:
 Maximum # iterations   MaxIter         ....   500
 SCF integral mode      SCFMode         .... Direct
   Integral package                     .... SHARK and LIBINT hybrid scheme
 Reset frequency        DirectResetFreq ....    20
 Integral Threshold     Thresh          ....  2.500e-11 Eh
 Primitive CutOff       TCut            ....  2.500e-12 Eh

Convergence Tolerance:
 Convergence Check Mode ConvCheckMode   .... Total+1el-Energy
 Convergence forced     ConvForced      .... 1
 Energy Change          TolE            ....  1.000e-08 Eh
 1-El. energy change                    ....  1.000e-05 Eh
 Orbital Gradient       TolG            ....  1.000e-05
 Orbital Rotation angle TolX            ....  1.000e-05
 DIIS Error             TolErr          ....  5.000e-07


Diagonalization of the overlap matrix:
Smallest eigenvalue                        ... 3.139e-03
Time for diagonalization                   ...    0.002 sec
Threshold for overlap eigenvalues          ... 1.000e-08
Number of eigenvalues below threshold      ... 0
Time for construction of square roots      ...    0.362 sec
Total time needed                          ...    0.364 sec

Time for model grid setup =    0.325 sec

------------------------------
INITIAL GUESS: MODEL POTENTIAL
------------------------------
Loading Hartree-Fock densities                     ... done
Calculating cut-offs                               ... done
Initializing the effective Hamiltonian             ... done
Setting up the integral package (SHARK)            ... done
Starting the Coulomb interaction                   ... done (   0.0 sec)
Reading the grid                                   ... done
Mapping shells                                     ... done
Starting the XC term evaluation                    ... done (   0.1 sec)
  promolecular density results
     # of electrons  =     29.998735517
     EX              =    -24.807252911
     EC              =     -1.000400908
     EX+EC           =    -25.807653819
Transforming the Hamiltonian                       ... done (   0.0 sec)
Diagonalizing the Hamiltonian                      ... done (   0.0 sec)
Back transforming the eigenvectors                 ... done (   0.0 sec)
Now organizing SCF variables                       ... done
                      ------------------
                      INITIAL GUESS DONE (   0.7 sec)
                      ------------------
-------------------
DFT GRID GENERATION
-------------------

General Integration Accuracy     IntAcc      ... 4.388
Radial Grid Type                 RadialGrid  ... OptM3 with GC (2021)
Angular Grid (max. ang.)         AngularGrid ... 4 (Lebedev-302)
Angular grid pruning method      GridPruning ... 4 (adaptive)
Weight generation scheme         WeightScheme... Becke
Basis function cutoff            BFCut       ... 1.0000e-11
Integration weight cutoff        WCut        ... 1.0000e-14
Angular grids for H and He will be reduced by one unit
Partially contracted basis set               ... off
Rotationally invariant grid construction     ... off

Total number of grid points                  ...    37366
Total number of batches                      ...      588
Average number of points per batch           ...       63
Average number of grid points per atom       ...     4671
Time for grid setup =    0.291 sec

--------------------
COSX GRID GENERATION
--------------------

GRIDX 1
-------
General Integration Accuracy     IntAcc      ... 3.816
Radial Grid Type                 RadialGrid  ... OptM3 with GC (2021)
Angular Grid (max. ang.)         AngularGrid ... 1 (Lebedev-50)
Angular grid pruning method      GridPruning ... 4 (adaptive)
Weight generation scheme         WeightScheme... Becke
Basis function cutoff            BFCut       ... 1.0000e-11
Integration weight cutoff        WCut        ... 1.0000e-14
Angular grids for H and He will be reduced by one unit
Partially contracted basis set               ... on
Rotationally invariant grid construction     ... off

Total number of grid points                  ...     4796
Total number of batches                      ...       79
Average number of points per batch           ...       60
Average number of grid points per atom       ...      600
UseSFitting                                  ... on

GRIDX 2
-------
General Integration Accuracy     IntAcc      ... 4.020
Radial Grid Type                 RadialGrid  ... OptM3 with GC (2021)
Angular Grid (max. ang.)         AngularGrid ... 2 (Lebedev-110)
Angular grid pruning method      GridPruning ... 4 (adaptive)
Weight generation scheme         WeightScheme... Becke
Basis function cutoff            BFCut       ... 1.0000e-11
Integration weight cutoff        WCut        ... 1.0000e-14
Angular grids for H and He will be reduced by one unit
Partially contracted basis set               ... on
Rotationally invariant grid construction     ... off

Total number of grid points                  ...    10551
Total number of batches                      ...      169
Average number of points per batch           ...       62
Average number of grid points per atom       ...     1319
UseSFitting                                  ... on

GRIDX 3
-------
General Integration Accuracy     IntAcc      ... 4.338
Radial Grid Type                 RadialGrid  ... OptM3 with GC (2021)
Angular Grid (max. ang.)         AngularGrid ... 3 (Lebedev-194)
Angular grid pruning method      GridPruning ... 4 (adaptive)
Weight generation scheme         WeightScheme... Becke
Basis function cutoff            BFCut       ... 1.0000e-11
Integration weight cutoff        WCut        ... 1.0000e-14
Angular grids for H and He will be reduced by one unit
Partially contracted basis set               ... on
Rotationally invariant grid construction     ... off

Total number of grid points                  ...    23268
Total number of batches                      ...      367
Average number of points per batch           ...       63
Average number of grid points per atom       ...     2908
UseSFitting                                  ... on

Time for X-Grid setup             =    3.751 sec

 re-compute Schwartz prescreening matrix in partically contracted basis (1) ...done (   1.066 sec)
--------------
SCF ITERATIONS
--------------
ITER       Energy         Delta-E        Max-DP      RMS-DP      [F,P]     Damp
               ***  Starting incremental Fock matrix formation  ***
  0   -191.6196399119   0.000000000000 0.08107657  0.00383472  0.2391793 0.7000
  1   -191.6903058539  -0.070665942006 0.04267549  0.00248842  0.0906179 0.7000
                               ***Turning on DIIS***
  2   -191.7155901837  -0.025284329820 0.06633067  0.00367664  0.0385266 0.0000
  3   -191.7594102251  -0.043820041417 0.02973102  0.00178667  0.0451263 0.0000
  4   -191.7669861406  -0.007575915516 0.00922518  0.00054692  0.0156668 0.0000
                      *** Initiating the SOSCF procedure ***
                           *** Shutting down DIIS ***
                      *** Re-Reading the Fockian *** 
                      *** Removing any level shift *** 
ITER      Energy       Delta-E        Grad      Rot      Max-DP    RMS-DP
  5   -191.76795859  -0.0009724502  0.000909  0.000909  0.003676  0.000164
               *** Restarting incremental Fock matrix formation ***
  6   -191.76792550   0.0000330903  0.000365  0.001298  0.001779  0.000100
  7   -191.76792402   0.0000014843  0.000613  0.000816  0.000949  0.000045
  8   -191.76792875  -0.0000047386  0.000099  0.000191  0.000329  0.000021
  9   -191.76792868   0.0000000769  0.000106  0.000112  0.000168  0.000010
 10   -191.76792893  -0.0000002502  0.000037  0.000104  0.000153  0.000006
 11   -191.76792890   0.0000000254  0.000050  0.000060  0.000096  0.000003
                  ***Gradient check signals convergence***
              ***Rediagonalizing the Fockian in SOSCF/NRSCF***

               *****************************************************
               *                     SUCCESS                       *
               *           SCF CONVERGED AFTER  12 CYCLES          *
               *****************************************************

Old exchange energy                            =     -5.057451518 Eh
New exchange energy                            =     -5.057431104 Eh
Exchange energy change after final integration =      0.000020414 Eh
Total energy after final integration           =   -191.767908526 Eh
Final COS-X integration done in                =     1.462 sec

----------------
TOTAL SCF ENERGY
----------------

Total Energy       :         -191.76790853 Eh           -5218.27008 eV

Components:
Nuclear Repulsion  :          105.48871379 Eh            2870.49384 eV
Electronic Energy  :         -297.25662231 Eh           -8088.76392 eV
One Electron Energy:         -467.92603702 Eh          -12732.91480 eV
Two Electron Energy:          170.66941471 Eh            4644.15088 eV
Max COSX asymmetry :            0.00000106 Eh               0.00003 eV

Virial components:
Potential Energy   :         -383.02147862 Eh          -10422.54431 eV
Kinetic Energy     :          191.25357010 Eh            5204.27422 eV
Virial Ratio       :            2.00268930


DFT components:
N(Alpha)           :       15.000001189571 electrons
N(Beta)            :       15.000001189571 electrons
N(Total)           :       30.000002379141 electrons
E(X)               :      -20.090056245931 Eh       
E(C)               :       -1.189292625460 Eh       
E(XC)              :      -21.279348871391 Eh       
DFET-embed. en.    :        0.000000000000 Eh       

---------------
SCF CONVERGENCE
---------------

  Last Energy change         ...   -3.7067e-08  Tolerance :   1.0000e-08
  Last MAX-Density change    ...    3.1086e-15  Tolerance :   1.0000e-07
  Last RMS-Density change    ...    7.4238e-17  Tolerance :   5.0000e-09
  Last Orbital Gradient      ...    8.6019e-07  Tolerance :   1.0000e-05
  Last Orbital Rotation      ...    2.1725e-06  Tolerance :   1.0000e-05

             **** THE GBW FILE WAS UPDATED (acrolien.371.gbw) ****
             **** DENSITY acrolien.371.scfp WAS UPDATED ****
             **** ENERGY FILE WAS UPDATED (acrolien.371.en.tmp) ****
             **** THE GBW FILE WAS UPDATED (acrolien.371.gbw) ****
             **** DENSITY acrolien.371.scfp WAS UPDATED ****
----------------
ORBITAL ENERGIES
----------------

  NO   OCC          E(Eh)            E(eV) 
   0   2.0000     -19.142048      -520.8816 
   1   2.0000     -10.275758      -279.6176 
   2   2.0000     -10.197313      -277.4830 
   3   2.0000     -10.183810      -277.1156 
   4   2.0000      -1.062788       -28.9199 
   5   2.0000      -0.808203       -21.9923 
   6   2.0000      -0.663690       -18.0599 
   7   2.0000      -0.566773       -15.4227 
   8   2.0000      -0.513058       -13.9610 
   9   2.0000      -0.472154       -12.8480 
  10   2.0000      -0.442498       -12.0410 
  11   2.0000      -0.411775       -11.2050 
  12   2.0000      -0.377698       -10.2777 
  13   2.0000      -0.288438        -7.8488 
  14   2.0000      -0.253539        -6.8991 
  15   0.0000      -0.030526        -0.8307 
  16   0.0000      -0.006803        -0.1851 
  17   0.0000       0.094289         2.5657 
  18   0.0000       0.103713         2.8222 
  19   0.0000       0.116231         3.1628 
  20   0.0000       0.149725         4.0742 
  21   0.0000       0.266718         7.2578 
  22   0.0000       0.276495         7.5238 
  23   0.0000       0.328467         8.9380 
  24   0.0000       0.447764        12.1843 
  25   0.0000       0.478648        13.0247 
  26   0.0000       0.482486        13.1291 
  27   0.0000       0.494175        13.4472 
  28   0.0000       0.522616        14.2211 
  29   0.0000       0.563230        15.3263 
  30   0.0000       0.590686        16.0734 
  31   0.0000       0.604777        16.4568 
  32   0.0000       0.646695        17.5975 
  33   0.0000       0.689768        18.7695 
  34   0.0000       0.691027        18.8038 
  35   0.0000       0.723803        19.6957 
  36   0.0000       0.803313        21.8593 
  37   0.0000       0.832451        22.6521 
  38   0.0000       0.912226        24.8229 
  39   0.0000       0.928835        25.2749 
  40   0.0000       0.983907        26.7735 
  41   0.0000       0.996542        27.1173 
  42   0.0000       1.027646        27.9637 
  43   0.0000       1.085682        29.5429 
  44   0.0000       1.114174        30.3182 
  45   0.0000       1.155705        31.4483 
  46   0.0000       1.317304        35.8457 
  47   0.0000       1.362403        37.0729 
  48   0.0000       1.423837        38.7446 
  49   0.0000       1.482193        40.3325 
  50   0.0000       1.488404        40.5015 
  51   0.0000       1.592891        43.3448 
  52   0.0000       1.624363        44.2012 
  53   0.0000       1.647122        44.8205 
  54   0.0000       1.703002        46.3410 
  55   0.0000       1.707551        46.4648 
  56   0.0000       1.745620        47.5007 
  57   0.0000       1.784989        48.5720 
  58   0.0000       1.789163        48.6856 
  59   0.0000       1.862454        50.6799 
  60   0.0000       1.923295        52.3355 
  61   0.0000       2.001127        54.4534 
  62   0.0000       2.140966        58.2586 
  63   0.0000       2.219297        60.3901 
  64   0.0000       2.270709        61.7891 
  65   0.0000       2.333196        63.4895 
  66   0.0000       2.408357        65.5347 
  67   0.0000       2.471343        67.2487 
  68   0.0000       2.620822        71.3162 
  69   0.0000       2.745973        74.7217 
  70   0.0000       2.796947        76.1088 
  71   0.0000       2.955032        80.4105 
  72   0.0000       3.087111        84.0046 
  73   0.0000       3.262485        88.7767 
  74   0.0000       3.341881        90.9372 
  75   0.0000       3.462611        94.2224 

                    ********************************
                    * MULLIKEN POPULATION ANALYSIS *
                    ********************************

-----------------------
MULLIKEN ATOMIC CHARGES
-----------------------
   0 C :    0.150141
   1 O :   -0.164802
   2 C :   -0.101644
   3 C :    0.205524
   4 H :   -0.019125
   5 H :   -0.012416
   6 H :   -0.023083
   7 H :   -0.034594
Sum of atomic charges:   -0.0000000

--------------------------------
MULLIKEN REDUCED ORBITAL CHARGES
--------------------------------
  0 C s       :     3.109454  s :     3.109454
      pz      :     0.892285  p :     2.591062
      px      :     0.875047
      py      :     0.823730
      dz2     :     0.045787  d :     0.149343
      dxz     :     0.027927
      dyz     :     0.022197
      dx2y2   :     0.024771
      dxy     :     0.028661
  1 O s       :     3.739704  s :     3.739704
      pz      :     1.559184  p :     4.405337
      px      :     1.534803
      py      :     1.311351
      dz2     :     0.003679  d :     0.019762
      dxz     :     0.003793
      dyz     :     0.005447
      dx2y2   :     0.003658
      dxy     :     0.003184
  2 C s       :     3.127079  s :     3.127079
      pz      :     0.979144  p :     2.910812
      px      :     0.980520
      py      :     0.951148
      dz2     :     0.005615  d :     0.063752
      dxz     :     0.012720
      dyz     :     0.005598
      dx2y2   :     0.020774
      dxy     :     0.019045
  3 C s       :     2.918118  s :     2.918118
      pz      :     0.969494  p :     2.829152
      px      :     0.945970
      py      :     0.913688
      dz2     :     0.003046  d :     0.047206
      dxz     :     0.008940
      dyz     :     0.003843
      dx2y2   :     0.016516
      dxy     :     0.014861
  4 H s       :     0.994362  s :     0.994362
      pz      :     0.015452  p :     0.024763
      px      :     0.006416
      py      :     0.002895
  5 H s       :     0.979947  s :     0.979947
      pz      :     0.009534  p :     0.032469
      px      :     0.005892
      py      :     0.017042
  6 H s       :     0.987531  s :     0.987531
      pz      :     0.010277  p :     0.035552
      px      :     0.007229
      py      :     0.018046
  7 H s       :     0.996324  s :     0.996324
      pz      :     0.008645  p :     0.038271
      px      :     0.017405
      py      :     0.012220


                     *******************************
                     * LOEWDIN POPULATION ANALYSIS *
                     *******************************

----------------------
LOEWDIN ATOMIC CHARGES
----------------------
   0 C :   -0.035800
   1 O :    0.029003
   2 C :   -0.032945
   3 C :    0.021302
   4 H :   -0.007740
   5 H :    0.020747
   6 H :    0.013182
   7 H :   -0.007749

-------------------------------
LOEWDIN REDUCED ORBITAL CHARGES
-------------------------------
  0 C s       :     2.861265  s :     2.861265
      pz      :     0.982504  p :     2.777164
      px      :     0.930842
      py      :     0.863817
      dz2     :     0.126990  d :     0.397372
      dxz     :     0.069333
      dyz     :     0.062414
      dx2y2   :     0.055661
      dxy     :     0.082974
  1 O s       :     3.482273  s :     3.482273
      pz      :     1.586135  p :     4.454254
      px      :     1.519851
      py      :     1.348267
      dz2     :     0.006147  d :     0.034470
      dxz     :     0.006175
      dyz     :     0.011133
      dx2y2   :     0.004717
      dxy     :     0.006298
  2 C s       :     2.815814  s :     2.815814
      pz      :     0.952131  p :     3.021078
      px      :     1.056914
      py      :     1.012033
      dz2     :     0.015554  d :     0.196052
      dxz     :     0.036584
      dyz     :     0.018922
      dx2y2   :     0.064592
      dxy     :     0.060400
  3 C s       :     2.773127  s :     2.773127
      pz      :     0.958546  p :     3.043753
      px      :     1.062068
      py      :     1.023139
      dz2     :     0.013790  d :     0.161818
      dxz     :     0.025643
      dyz     :     0.017775
      dx2y2   :     0.056024
      dxy     :     0.048586
  4 H s       :     0.932436  s :     0.932436
      pz      :     0.045659  p :     0.075304
      px      :     0.019064
      py      :     0.010581
  5 H s       :     0.882563  s :     0.882563
      pz      :     0.027983  p :     0.096690
      px      :     0.020574
      py      :     0.048133
  6 H s       :     0.885049  s :     0.885049
      pz      :     0.030697  p :     0.101770
      px      :     0.022141
      py      :     0.048931
  7 H s       :     0.888242  s :     0.888242
      pz      :     0.029425  p :     0.119507
      px      :     0.050921
      py      :     0.039160


                      *****************************
                      * MAYER POPULATION ANALYSIS *
                      *****************************

  NA   - Mulliken gross atomic population
  ZA   - Total nuclear charge
  QA   - Mulliken gross atomic charge
  VA   - Mayer's total valence
  BVA  - Mayer's bonded valence
  FA   - Mayer's free valence

  ATOM       NA         ZA         QA         VA         BVA        FA
  0 C      5.8499     6.0000     0.1501     4.1778     4.1778    -0.0000
  1 O      8.1648     8.0000    -0.1648     2.3309     2.3309     0.0000
  2 C      6.1016     6.0000    -0.1016     4.0689     4.0689    -0.0000
  3 C      5.7945     6.0000     0.2055     3.9911     3.9911    -0.0000
  4 H      1.0191     1.0000    -0.0191     0.9605     0.9605    -0.0000
  5 H      1.0124     1.0000    -0.0124     0.9862     0.9862    -0.0000
  6 H      1.0231     1.0000    -0.0231     0.9758     0.9758    -0.0000
  7 H      1.0346     1.0000    -0.0346     0.9586     0.9586    -0.0000

  Mayer bond orders larger than 0.100000
B(  0-C ,  1-O ) :   2.2503 B(  0-C ,  2-C ) :   0.9827 B(  0-C ,  4-H ) :   0.9192 
B(  2-C ,  3-C ) :   2.0625 B(  2-C ,  5-H ) :   0.9410 B(  3-C ,  6-H ) :   0.9334 
B(  3-C ,  7-H ) :   0.9363 

-------
TIMINGS
-------

Total SCF time: 0 days 0 hours 2 min 35 sec 

Total time                  ....     155.736 sec
Sum of individual times     ....     124.397 sec  ( 79.9%)

Fock matrix formation       ....     119.606 sec  ( 76.8%)
  Split-RI-J                ....       0.885 sec  (  0.7% of F)
  Chain of spheres X        ....       8.252 sec  (  6.9% of F)
  XC integration            ....      41.348 sec  ( 34.6% of F)
    Basis function eval.    ....       1.614 sec  (  3.9% of XC)
    Density eval.           ....       0.748 sec  (  1.8% of XC)
    XC-Functional eval.     ....       0.583 sec  (  1.4% of XC)
    XC-Potential eval.      ....       0.613 sec  (  1.5% of XC)
Diagonalization             ....       0.007 sec  (  0.0%)
Density matrix formation    ....       0.001 sec  (  0.0%)
Population analysis         ....       0.006 sec  (  0.0%)
Initial guess               ....       0.377 sec  (  0.2%)
Orbital Transformation      ....       0.000 sec  (  0.0%)
Orbital Orthonormalization  ....       0.000 sec  (  0.0%)
DIIS solution               ....       0.028 sec  (  0.0%)
SOSCF solution              ....       0.006 sec  (  0.0%)
Grid generation             ....       4.366 sec  (  2.8%)

Maximum memory used throughout the entire SCF-calculation: 51.7 MB
------------------------------------------------------------------------------
                        ORCA TD-DFT/TDA CALCULATION
------------------------------------------------------------------------------

Input orbitals are from        ... acrolien.371.gbw
CI-vector output               ... acrolien.371.cis
Tamm-Dancoff approximation     ... operative
CIS-Integral strategy          ... AO-integrals
Integral handling              ... AO integral Direct
Max. core memory used          ... 512 MB
Reference state                ... RHF
Generation of triplets         ... off
Follow IRoot                   ... off
Number of operators            ... 1
Orbital ranges used for CIS calculation:
 Operator 0:  Orbitals   4... 14  to  15... 75
XAS localization array:
 Operator 0:  Orbitals  -1... -1

-------------------
XC-INTEGRATION GRID
-------------------

General Integration Accuracy     IntAcc      ... 3.467
Radial Grid Type                 RadialGrid  ... OptM3 with GC (2021)
Angular Grid (max. ang.)         AngularGrid ... 1 (Lebedev-50)
Angular grid pruning method      GridPruning ... 4 (adaptive)
Weight generation scheme         WeightScheme... Becke
Basis function cutoff            BFCut       ... 1.0000e-11
Integration weight cutoff        WCut        ... 1.0000e-14
Angular grids for H and He will be reduced by one unit
Partially contracted basis set               ... off
Rotationally invariant grid construction     ... off

Total number of grid points                  ...     5490
Total number of batches                      ...       88
Average number of points per batch           ...       62
Average number of grid points per atom       ...      686

---------------------
COSX-INTEGRATION GRID
---------------------

General Integration Accuracy     IntAcc      ... 3.067
Radial Grid Type                 RadialGrid  ... OptM3 with GC (2021)
Angular Grid (max. ang.)         AngularGrid ... 1 (Lebedev-50)
Angular grid pruning method      GridPruning ... 4 (adaptive)
Weight generation scheme         WeightScheme... Becke
Basis function cutoff            BFCut       ... 1.0000e-11
Integration weight cutoff        WCut        ... 1.0000e-14
Angular grids for H and He will be reduced by one unit
Partially contracted basis set               ... on
Rotationally invariant grid construction     ... off

Total number of grid points                  ...     2507
Total number of batches                      ...       45
Average number of points per batch           ...       55
Average number of grid points per atom       ...      313

---------------
TD-DFT XC SETUP
---------------

DFT calculation                         ... on
Name of the grid file                   ... acrolien.371.grid_cis.tmp
Exchange functional (TD-DFT)            ... B88
   X-Alpha parameter    XAlpha (TD-DFT) ...  0.666667
   Becke's b parameter  XBeta (TD-DFT)  ...  0.004200
Correlation functional (TD-DFT)         ... LYP
 LDA part of GGA corr.  LDAOpt (TD-DFT) ... VWN-5
Hybrid DFT                              ... on
   Exchange mixing (TD-DFT)             ...  0.200
   GGA exch. scaling (TD-DFT)           ...  0.720
   GGA corr. scaling (TD-DFT)           ...  0.810

Building densities             ... done
Calculating rho(r) on the grid ... done
Building xc-kernel on the grid ... done
                    *** TD-DFT CALCULATION INITIALIZED ***

------------------------
DAVIDSON-DIAGONALIZATION
------------------------

Dimension of the eigenvalue problem            ...    671
Number of roots to be determined               ...      1
Maximum size of the expansion space            ...     10
Maximum number of iterations                   ...    100
Convergence tolerance for the residual         ...    2.500e-07
Convergence tolerance for the energies         ...    2.500e-07
Orthogonality tolerance                        ...    1.000e-14
Level Shift                                    ...    0.000e+00
Constructing the preconditioner                ... o.k.
Building the initial guess                     ... o.k.
Number of trial vectors determined             ...     10


                       ****Iteration    0****

   Memory handling for direct AO based CIS:
   Memory per vector needed      ...     1 MB
   Memory needed                 ...     0 MB
   Memory available              ...   512 MB
   Number of vectors per batch   ...   512
   Number of batches             ...     1
   Time for densities:            0.000
   Time for RI-J (Direct):        0.072
   Time for K (COSX):             0.238
   Time for XC-Integration:       0.082
   Time for Sigma-Completion:     0.000
   Size of expansion space: 3
   Lowest Energy          :     0.155549466001
   Maximum Energy change  :     0.155549466001 (vector 0)
   Maximum residual norm  :     0.001869223689

                       ****Iteration    1****
   Time for densities:            0.000
   Time for RI-J (Direct):        0.055
   Time for K (COSX):             0.194
   Time for XC-Integration:       0.043
   Time for Sigma-Completion:     0.000
   Size of expansion space: 4
   Lowest Energy          :     0.153592445831
   Maximum Energy change  :     0.001957020170 (vector 0)
   Maximum residual norm  :     0.000321538991

                       ****Iteration    2****
   Time for densities:            0.000
   Time for RI-J (Direct):        0.055
   Time for K (COSX):             1.474
   Time for XC-Integration:       0.043
   Time for Sigma-Completion:     0.000
   Size of expansion space: 5
   Lowest Energy          :     0.153314244327
   Maximum Energy change  :     0.000278201504 (vector 0)
   Maximum residual norm  :     0.000023743551

                       ****Iteration    3****
   Time for densities:            0.000
   Time for RI-J (Direct):        0.055
   Time for K (COSX):             3.475
   Time for XC-Integration:       0.043
   Time for Sigma-Completion:     0.000
   Size of expansion space: 6
   Lowest Energy          :     0.153290042245
   Maximum Energy change  :     0.000024202082 (vector 0)
   Maximum residual norm  :     0.000001082380

                       ****Iteration    4****
   Time for densities:            0.000
   Time for RI-J (Direct):        0.054
   Time for K (COSX):             2.174
   Time for XC-Integration:       0.043
   Time for Sigma-Completion:     0.000
   Size of expansion space: 7
   Lowest Energy          :     0.153288874433
   Maximum Energy change  :     0.000001167812 (vector 0)
   Maximum residual norm  :     0.000000045924

      *** CONVERGENCE OF RESIDUAL NORM REACHED ***

Storing the converged CI vectors               ... acrolien.371.cis1

                 *** DAVIDSON DONE ***

Total time for solving the CIS problem:    11.553sec

------------------------------------
TD-DFT/TDA EXCITED STATES (SINGLETS)
------------------------------------

the weight of the individual excitations are printed if larger than 1.0e-02

STATE  1:  E=   0.153289 au      4.171 eV    33643.0 cm**-1 <S**2> =   0.000000
    14a ->  15a  :     0.925971 (c= -0.96227408)
    14a ->  16a  :     0.067447 (c= -0.25970507)


-----------------------------
TD-DFT/TDA-EXCITATION SPECTRA
-----------------------------

Center of mass = ( -0.7974, -0.4319, -0.4591)
Calculating the Dipole integrals                  ... done
Transforming integrals                            ... done
Calculating the Linear Momentum integrals         ... done
Transforming integrals                            ... done
Calculating angular momentum integrals            ... done
Transforming integrals                            ... done

-----------------------------------------------------------------------------
         ABSORPTION SPECTRUM VIA TRANSITION ELECTRIC DIPOLE MOMENTS
-----------------------------------------------------------------------------
State   Energy    Wavelength  fosc         T2        TX        TY        TZ  
        (cm-1)      (nm)                 (au**2)    (au)      (au)      (au) 
-----------------------------------------------------------------------------
   1   33643.0    297.2   0.000432139   0.00423  -0.02408   0.01254  -0.05909

-----------------------------------------------------------------------------
         ABSORPTION SPECTRUM VIA TRANSITION VELOCITY DIPOLE MOMENTS
-----------------------------------------------------------------------------
State   Energy    Wavelength   fosc        P2         PX        PY        PZ  
        (cm-1)      (nm)                 (au**2)     (au)      (au)      (au) 
-----------------------------------------------------------------------------
   1   33643.0    297.2   0.000334556   0.00008  -0.00360  -0.00428  -0.00676

-------------------------------------------------------------------
                             CD SPECTRUM
-------------------------------------------------------------------
State  Energy     Wavelength     R         MX        MY        MZ   
       (cm-1)       (nm)     (1e40*cgs)   (au)      (au)      (au)  
-------------------------------------------------------------------
   1   33643.0    297.2      9.99339  -0.23673  -0.35582  -0.33778

-------------------------------------------------------------------
         CD SPECTRUM VIA TRANSITION VELOCITY DIPOLE MOMENTS        
-------------------------------------------------------------------
State  Energy     Wavelength     R         MX        MY        MZ   
       (cm-1)       (nm)     (1e40*cgs)   (au)      (au)      (au)  
-------------------------------------------------------------------
   1   33643.0    297.2     14.32282  -0.23673  -0.35582  -0.33778

Total run time:       26.568 sec

           *** ORCA-CIS/TD-DFT FINISHED WITHOUT ERROR ***

Maximum memory used throughout the entire CIS-calculation: 48.6 MB

-----------------------
CIS/TD-DFT TOTAL ENERGY
-----------------------

    E(SCF)  =   -191.767908526 Eh
    DE(CIS) =      0.153288874 Eh (Root  1)
    ----------------------------- ---------
    E(tot)  =   -191.614619651 Eh


-------------------------   --------------------
FINAL SINGLE POINT ENERGY      -191.614619651389
-------------------------   --------------------


                            ***************************************
                            *     ORCA property calculations      *
                            ***************************************

                                    ---------------------
                                    Active property flags
                                    ---------------------
   (+) Dipole Moment


------------------------------------------------------------------------------
                       ORCA ELECTRIC PROPERTIES CALCULATION
------------------------------------------------------------------------------

Dipole Moment Calculation                       ... on
Quadrupole Moment Calculation                   ... off
Polarizability Calculation                      ... off
GBWName                                         ... acrolien.371.gbw
Electron density                                ... acrolien.371.scfp
The origin for moment calculation is the CENTER OF MASS  = (-0.797431, -0.431923 -0.459067)

-------------
DIPOLE MOMENT
-------------
                                X             Y             Z
Electronic contribution:     -2.47434      -1.07174      -1.29514
Nuclear contribution   :      2.99436       1.67635       1.78302
                        -----------------------------------------
Total Dipole Moment    :      0.52002       0.60461       0.48787
                        -----------------------------------------
Magnitude (a.u.)       :      0.93488
Magnitude (Debye)      :      2.37627



--------------------
Rotational spectrum 
--------------------
 
Rotational constants in cm-1:     1.096582     0.168261     0.161734 
Rotational constants in MHz : 32874.710391  5044.351574  4848.676057 

 Dipole components along the rotational axes: 
x,y,z [a.u.] :     0.804612     0.370804     0.298498 
x,y,z [Debye]:     2.045162     0.942508     0.758720 

 

Timings for individual modules:

Sum of individual times         ...      185.368 sec (=   3.089 min)
GTO integral calculation        ...        3.022 sec (=   0.050 min)   1.6 %
SCF iterations                  ...      155.746 sec (=   2.596 min)  84.0 %
CIS module                      ...       26.600 sec (=   0.443 min)  14.3 %
                             ****ORCA TERMINATED NORMALLY****
TOTAL RUN TIME: 0 days 0 hours 3 minutes 19 seconds 375 msec
