
                                 *****************
                                 * O   R   C   A *
                                 *****************

                                            #,                                       
                                            ###                                      
                                            ####                                     
                                            #####                                    
                                            ######                                   
                                           ########,                                 
                                     ,,################,,,,,                         
                               ,,#################################,,                 
                          ,,##########################################,,             
                       ,#########################################, ''#####,          
                    ,#############################################,,   '####,        
                  ,##################################################,,,,####,       
                ,###########''''           ''''###############################       
              ,#####''   ,,,,##########,,,,          '''####'''          '####       
            ,##' ,,,,###########################,,,                        '##       
           ' ,,###''''                  '''############,,,                           
         ,,##''                                '''############,,,,        ,,,,,,###''
      ,#''                                            '''#######################'''  
     '                                                          ''''####''''         
             ,#######,   #######,   ,#######,      ##                                
            ,#'     '#,  ##    ##  ,#'     '#,    #''#        ######   ,####,        
            ##       ##  ##   ,#'  ##            #'  '#       #        #'  '#        
            ##       ##  #######   ##           ,######,      #####,   #    #        
            '#,     ,#'  ##    ##  '#,     ,#' ,#      #,         ##   #,  ,#        
             '#######'   ##     ##  '#######'  #'      '#     #####' # '####'        



                  #######################################################
                  #                        -***-                        #
                  #          Department of theory and spectroscopy      #
                  #    Directorship and core code : Frank Neese         #
                  #        Max Planck Institute fuer Kohlenforschung    #
                  #                Kaiser Wilhelm Platz 1               #
                  #                 D-45470 Muelheim/Ruhr               #
                  #                      Germany                        #
                  #                                                     #
                  #                  All rights reserved                #
                  #                        -***-                        #
                  #######################################################


                         Program Version 5.0.3 -  RELEASE  -


 With contributions from (in alphabetic order):
   Daniel Aravena         : Magnetic Suceptibility
   Michael Atanasov       : Ab Initio Ligand Field Theory (pilot matlab implementation)
   Alexander A. Auer      : GIAO ZORA, VPT2 properties, NMR spectrum
   Ute Becker             : Parallelization
   Giovanni Bistoni       : ED, misc. LED, open-shell LED, HFLD
   Martin Brehm           : Molecular dynamics
   Dmytro Bykov           : SCF Hessian
   Vijay G. Chilkuri      : MRCI spin determinant printing, contributions to CSF-ICE
   Dipayan Datta          : RHF DLPNO-CCSD density
   Achintya Kumar Dutta   : EOM-CC, STEOM-CC
   Dmitry Ganyushin       : Spin-Orbit,Spin-Spin,Magnetic field MRCI
   Miquel Garcia          : C-PCM and meta-GGA Hessian, CC/C-PCM, Gaussian charge scheme
   Yang Guo               : DLPNO-NEVPT2, F12-NEVPT2, CIM, IAO-localization
   Andreas Hansen         : Spin unrestricted coupled pair/coupled cluster methods
   Benjamin Helmich-Paris : MC-RPA, TRAH-SCF, COSX integrals
   Lee Huntington         : MR-EOM, pCC
   Robert Izsak           : Overlap fitted RIJCOSX, COSX-SCS-MP3, EOM
   Marcus Kettner         : VPT2
   Christian Kollmar      : KDIIS, OOCD, Brueckner-CCSD(T), CCSD density, CASPT2, CASPT2-K
   Simone Kossmann        : Meta GGA functionals, TD-DFT gradient, OOMP2, MP2 Hessian
   Martin Krupicka        : Initial AUTO-CI
   Lucas Lang             : DCDCAS
   Marvin Lechner         : AUTO-CI (C++ implementation), FIC-MRCC
   Dagmar Lenk            : GEPOL surface, SMD
   Dimitrios Liakos       : Extrapolation schemes; Compound Job, initial MDCI parallelization
   Dimitrios Manganas     : Further ROCIS development; embedding schemes
   Dimitrios Pantazis     : SARC Basis sets
   Anastasios Papadopoulos: AUTO-CI, single reference methods and gradients
   Taras Petrenko         : DFT Hessian,TD-DFT gradient, ASA, ECA, R-Raman, ABS, FL, XAS/XES, NRVS
   Peter Pinski           : DLPNO-MP2, DLPNO-MP2 Gradient
   Christoph Reimann      : Effective Core Potentials
   Marius Retegan         : Local ZFS, SOC
   Christoph Riplinger    : Optimizer, TS searches, QM/MM, DLPNO-CCSD(T), (RO)-DLPNO pert. Triples
   Tobias Risthaus        : Range-separated hybrids, TD-DFT gradient, RPA, STAB
   Michael Roemelt        : Original ROCIS implementation
   Masaaki Saitow         : Open-shell DLPNO-CCSD energy and density
   Barbara Sandhoefer     : DKH picture change effects
   Avijit Sen             : IP-ROCIS
   Kantharuban Sivalingam : CASSCF convergence, NEVPT2, FIC-MRCI
   Bernardo de Souza      : ESD, SOC TD-DFT
   Georgi Stoychev        : AutoAux, RI-MP2 NMR, DLPNO-MP2 response
   Willem Van den Heuvel  : Paramagnetic NMR
   Boris Wezisla          : Elementary symmetry handling
   Frank Wennmohs         : Technical directorship


 We gratefully acknowledge several colleagues who have allowed us to
 interface, adapt or use parts of their codes:
   Stefan Grimme, W. Hujo, H. Kruse, P. Pracht,  : VdW corrections, initial TS optimization,
                  C. Bannwarth, S. Ehlert          DFT functionals, gCP, sTDA/sTD-DF
   Ed Valeev, F. Pavosevic, A. Kumar             : LibInt (2-el integral package), F12 methods
   Garnet Chan, S. Sharma, J. Yang, R. Olivares  : DMRG
   Ulf Ekstrom                                   : XCFun DFT Library
   Mihaly Kallay                                 : mrcc  (arbitrary order and MRCC methods)
   Jiri Pittner, Ondrej Demel                    : Mk-CCSD
   Frank Weinhold                                : gennbo (NPA and NBO analysis)
   Christopher J. Cramer and Donald G. Truhlar   : smd solvation model
   Lars Goerigk                                  : TD-DFT with DH, B97 family of functionals
   V. Asgeirsson, H. Jonsson                     : NEB implementation
   FAccTs GmbH                                   : IRC, NEB, NEB-TS, DLPNO-Multilevel, CI-OPT
                                                   MM, QMMM, 2- and 3-layer-ONIOM, Crystal-QMMM,
                                                   LR-CPCM, SF, NACMEs, symmetry and pop. for TD-DFT,
                                                   nearIR, NL-DFT gradient (VV10), updates on ESD,
                                                   ML-optimized integration grids
   S Lehtola, MJT Oliveira, MAL Marques          : LibXC Library
   Liviu Ungur et al                             : ANISO software


 Your calculation uses the libint2 library for the computation of 2-el integrals
 For citations please refer to: http://libint.valeyev.net

 Your ORCA version has been built with support for libXC version: 5.1.0
 For citations please refer to: https://tddft.org/programs/libxc/

 This ORCA versions uses:
   CBLAS   interface :  Fast vector & matrix operations
   LAPACKE interface :  Fast linear algebra routines
   SCALAPACK package :  Parallel linear algebra routines
   Shared memory     :  Shared parallel matrices
   BLAS/LAPACK       :  OpenBLAS 0.3.15  USE64BITINT DYNAMIC_ARCH NO_AFFINITY Haswell SINGLE_THREADED
        Core in use  :  Haswell
   Copyright (c) 2011-2014, The OpenBLAS Project


Your calculation utilizes the geometrical counterpoise correction gCP
Please cite in your paper:
H.Kruse, S. Grimme J.Chem.Phys., 136, (2012), 154101 
   

Your calculation utilizes the atom-pairwise dispersion correction
with the Becke-Johnson damping scheme (D3BJ)
Cite in your paper:
S.Grimme, S.Ehrlich, L.Goerigk, J Comput Chem, (2011), 32, 1456–1465 
S.Grimme, J.Antony, S.Ehrlich and H.Krieg, J.Chem.Phys., 132, (2010), 154104 
   

================================================================================

----- Orbital basis set information -----
Your calculation utilizes the basis: MINIX,
   a combination of small basis sets by S. Grimme (see manual for definitions).

================================================================================
                                        WARNINGS
                       Please study these warnings very carefully!
================================================================================

INFO   : Checking CIS options ...

INFO   : the flag for use of the SHARK integral package has been found!

================================================================================
                                       INPUT FILE
================================================================================
NAME = acrolien.620.com
|  1> ! HF-3c
|  2> !TightSCF
|  3> %scf
|  4>  ConvForced true
|  5>  convergence tight
|  6>  MaxIter 500
|  7> end
|  8>  
|  9> %tddft 
| 10>  nroots 1
| 11> end
| 12> 
| 13> # 	22461
| 14> * xyz 0 1
| 15> 		C   -0.528339  -0.413878   0.059636
| 16> 		O   -0.578486  -1.649621  -0.036946
| 17> 		C    0.576407   0.446703  -0.014747
| 18> 		C    1.845682  -0.153379   0.010255
| 19> 		H   -1.532593   0.093328  -0.006804
| 20> 		H    0.566377   1.539930  -0.144058
| 21> 		H    1.845801  -1.307759   0.241786
| 22> 		H    2.726790   0.531966  -0.181731
| 23> *
| 24> 
| 25>                          ****END OF INPUT****
================================================================================

                       ****************************
                       * Single Point Calculation *
                       ****************************

---------------------------------
CARTESIAN COORDINATES (ANGSTROEM)
---------------------------------
  C     -0.528339   -0.413878    0.059636
  O     -0.578486   -1.649621   -0.036946
  C      0.576407    0.446703   -0.014747
  C      1.845682   -0.153379    0.010255
  H     -1.532593    0.093328   -0.006804
  H      0.566377    1.539930   -0.144058
  H      1.845801   -1.307759    0.241786
  H      2.726790    0.531966   -0.181731

----------------------------
CARTESIAN COORDINATES (A.U.)
----------------------------
  NO LB      ZA    FRAG     MASS         X           Y           Z
   0 C     6.0000    0    12.011   -0.998416   -0.782116    0.112696
   1 O     8.0000    0    15.999   -1.093180   -3.117332   -0.069818
   2 C     6.0000    0    12.011    1.089251    0.844146   -0.027868
   3 C     6.0000    0    12.011    3.487834   -0.289844    0.019379
   4 H     1.0000    0     1.008   -2.896181    0.176364   -0.012858
   5 H     1.0000    0     1.008    1.070297    2.910046   -0.272230
   6 H     1.0000    0     1.008    3.488058   -2.471306    0.456909
   7 H     1.0000    0     1.008    5.152886    1.005270   -0.343422

--------------------------------
INTERNAL COORDINATES (ANGSTROEM)
--------------------------------
 C      0   0   0     0.000000000000     0.00000000     0.00000000
 O      1   0   0     1.240525520246     0.00000000     0.00000000
 C      1   2   0     1.402353811549   129.71868816     0.00000000
 C      3   1   2     1.404201742042   116.67245516   348.96145230
 H      1   2   3     1.127030743393   114.05995926   166.57911105
 H      3   1   2     1.100893822832   127.47738407   165.46357012
 H      4   3   1     1.177369866491   114.99856749   351.87040764
 H      4   3   1     1.132655155325   116.20403550   172.51400413

---------------------------
INTERNAL COORDINATES (A.U.)
---------------------------
 C      0   0   0     0.000000000000     0.00000000     0.00000000
 O      1   0   0     2.344253495405     0.00000000     0.00000000
 C      1   2   0     2.650064646688   129.71868816     0.00000000
 C      3   1   2     2.653556729234   116.67245516   348.96145230
 H      1   2   3     2.129779449522   114.05995926   166.57911105
 H      3   1   2     2.080387827678   127.47738407   165.46357012
 H      4   3   1     2.224906606000   114.99856749   351.87040764
 H      4   3   1     2.140408047739   116.20403550   172.51400413

---------------------
BASIS SET INFORMATION
---------------------
There are 3 groups of distinct atoms

 Group   1 Type C   : 6s3p contracted to 2s1p pattern {33/3}
 Group   2 Type O   : 6s3p contracted to 2s1p pattern {33/3}
 Group   3 Type H   : 3s contracted to 1s pattern {3}

Atom   0C    basis set group =>   1
Atom   1O    basis set group =>   2
Atom   2C    basis set group =>   1
Atom   3C    basis set group =>   1
Atom   4H    basis set group =>   3
Atom   5H    basis set group =>   3
Atom   6H    basis set group =>   3
Atom   7H    basis set group =>   3
------------------------------------------------------------------------------
                           ORCA GTO INTEGRAL CALCULATION
------------------------------------------------------------------------------
------------------------------------------------------------------------------
                   ___                                                        
                  /   \      - P O W E R E D   B Y -                         
                 /     \                                                     
                 |  |  |   _    _      __       _____    __    __             
                 |  |  |  | |  | |    /  \     |  _  \  |  |  /  |          
                  \  \/   | |  | |   /    \    | | | |  |  | /  /          
                 / \  \   | |__| |  /  /\  \   | |_| |  |  |/  /          
                |  |  |   |  __  | /  /__\  \  |    /   |      \           
                |  |  |   | |  | | |   __   |  |    \   |  |\   \          
                \     /   | |  | | |  |  |  |  | |\  \  |  | \   \       
                 \___/    |_|  |_| |__|  |__|  |_| \__\ |__|  \__/        
                                                                              
                      - O R C A' S   B I G   F R I E N D -                    
                                      &                                       
                       - I N T E G R A L  F E E D E R -                       
                                                                              
 v1 FN, 2020, v2 2021                                                         
------------------------------------------------------------------------------


Reading SHARK input file acrolien.620.SHARKINP.tmp ... ok
----------------------
SHARK INTEGRAL PACKAGE
----------------------

Number of atoms                             ...      8
Number of basis functions                   ...     24
Number of shells                            ...     16
Maximum angular momentum                    ...      1
Integral batch strategy                     ... SHARK/LIBINT Hybrid
RI-J (if used) integral strategy            ... SPLIT-RIJ (Revised 2003 algorithm where possible)
Printlevel                                  ...      1
Contraction scheme used                     ... SEGMENTED contraction
Coulomb Range Separation                    ... NOT USED
Exchange Range Separation                   ... NOT USED
Finite Nucleus Model                        ... NOT USED
Auxiliary Coulomb fitting basis             ... NOT available
Auxiliary J/K fitting basis                 ... NOT available
Auxiliary Correlation fitting basis         ... NOT available
Auxiliary 'external' fitting basis          ... NOT available
Integral threshold                          ...     2.500000e-11
Primitive cut-off                           ...     2.500000e-12
Primitive pair pre-selection threshold      ...     2.500000e-12

Calculating pre-screening integrals         ... done (  0.0 sec) Dimension = 16
Organizing shell pair data                  ... done (  0.4 sec)
Shell pair information
Total number of shell pairs                 ...       136
Shell pairs after pre-screening             ...       133
Total number of primitive shell pairs       ...      1224
Primitive shell pairs kept                  ...      1000
          la=0 lb=0:     75 shell pairs
          la=1 lb=0:     48 shell pairs
          la=1 lb=1:     10 shell pairs

Calculating one electron integrals          ... done (  0.0 sec)
Calculating Nuclear repulsion               ... done (  0.0 sec) ENN=    104.050727677607 Eh
Calculating 4-index integrals               ... 
    -> SHARK/Ints2Disk: Thresh =     2.500000e-11 TCut=    2.500000e-12 
    -> calling libint FockFlag=2 Lmax_loc=1
    ->Total LIBINT loop time =    0.000 sec
    -> L=0 0 0 0:     0.003 sec done=      2827 (=100.0%) skipped=         0 
    -> L=1 0 0 0:     0.007 sec done=      3597 (=100.0%) skipped=         0 
    -> L=1 0 1 0:     0.004 sec done=      1176 (=100.0%) skipped=         0 
    -> L=1 1 0 0:     0.003 sec done=       750 (=100.0%) skipped=         0 
    -> L=1 1 1 0:     0.004 sec done=       480 (=100.0%) skipped=         0 
    -> L=1 1 1 1:     0.001 sec done=        55 (=100.0%) skipped=         0 
    ->Total SHARK integral loop time =    0.022 sec
    -> Total Integral generation matrix time =    0.494 sec
    -> Number of small integrals   =       639
    -> Number of medium integrals  =      2171
    -> Number of large integrals   =     40967
    -> Number of MB stored         =         0 MB


SHARK setup successfully completed in   2.5 seconds

Maximum memory used throughout the entire GTOINT-calculation: 29.5 MB
-------------------------------------------------------------------------------
                                 ORCA SCF
-------------------------------------------------------------------------------

------------
SCF SETTINGS
------------
Hamiltonian:
 Ab initio Hamiltonian  Method          .... Hartree-Fock(GTOs)


General Settings:
 Integral files         IntName         .... acrolien.620
 Hartree-Fock type      HFTyp           .... RHF
 Total Charge           Charge          ....    0
 Multiplicity           Mult            ....    1
 Number of Electrons    NEL             ....   30
 Basis Dimension        Dim             ....   24
 Nuclear Repulsion      ENuc            ....    104.0507276776 Eh

Convergence Acceleration:
 DIIS                   CNVDIIS         .... on
   Start iteration      DIISMaxIt       ....    12
   Startup error        DIISStart       ....  0.200000
   # of expansion vecs  DIISMaxEq       ....     5
   Bias factor          DIISBfac        ....   1.050
   Max. coefficient     DIISMaxC        ....  10.000
 Trust-Rad. Augm. Hess. CNVTRAH         .... auto
   Auto Start mean grad. ratio tolernc. ....  1.125000
   Auto Start start iteration           ....    20
   Auto Start num. interpolation iter.  ....    10
   Max. Number of Micro iterations      ....    16
   Max. Number of Macro iterations      .... Maxiter - #DIIS iter
   Number of Davidson start vectors     ....     2
   Converg. threshold I  (grad. norm)   ....   1.000e-05
   Converg. threshold II (energy diff.) ....   1.000e-08
   Grad. Scal. Fac. for Micro threshold ....   0.100
   Minimum threshold for Micro iter.    ....   0.010
   NR start threshold (gradient norm)   ....   0.001
   Initial trust radius                 ....   0.400
   Minimum AH scaling param. (alpha)    ....   1.000
   Maximum AH scaling param. (alpha)    .... 1000.000
   Orbital update algorithm             .... Taylor
   White noise on init. David. guess    .... on
   Maximum white noise                  ....   0.010
   Quad. conv. algorithm                .... NR
 SOSCF                  CNVSOSCF        .... on
   Start iteration      SOSCFMaxIt      ....   150
   Startup grad/error   SOSCFStart      ....  0.003300
 Level Shifting         CNVShift        .... on
   Level shift para.    LevelShift      ....    0.2500
   Turn off err/grad.   ShiftErr        ....    0.0010
 Zerner damping         CNVZerner       .... off
 Static damping         CNVDamp         .... on
   Fraction old density DampFac         ....    0.7000
   Max. Damping (<1)    DampMax         ....    0.9800
   Min. Damping (>=0)   DampMin         ....    0.0000
   Turn off err/grad.   DampErr         ....    0.1000
 Fernandez-Rico         CNVRico         .... off

SCF Procedure:
 Maximum # iterations   MaxIter         ....   500
 SCF integral mode      SCFMode         .... Conventional
 Integral Threshold     Thresh          ....  2.500e-11 Eh
 Primitive CutOff       TCut            ....  2.500e-12 Eh
 Integral Buffer length BufferLength    .... 1048576
 Integral index format  IndFormat       ....     0
 Integral value format  ValFormat       ....     0
 Integral Storage       Thresh          ....  2.500e-11 Eh

Convergence Tolerance:
 Convergence Check Mode ConvCheckMode   .... Total+1el-Energy
 Convergence forced     ConvForced      .... 1
 Energy Change          TolE            ....  1.000e-08 Eh
 1-El. energy change                    ....  1.000e-05 Eh
 Orbital Gradient       TolG            ....  1.000e-05
 Orbital Rotation angle TolX            ....  1.000e-05
 DIIS Error             TolErr          ....  5.000e-07


Diagonalization of the overlap matrix:
Smallest eigenvalue                        ... 1.973e-01
Time for diagonalization                   ...    0.000 sec
Threshold for overlap eigenvalues          ... 1.000e-08
Number of eigenvalues below threshold      ... 0
Time for construction of square roots      ...    0.533 sec
Total time needed                          ...    0.534 sec

--------------------------------
INITIAL GUESS: MINIMAL BASIS EHT
--------------------------------
The minimal basis has 24 functions
EHT matrix was diagonalized
Basis set overlap was calculated now projecting the orbitals
Using GuessMode=FMatrix for the initial guess
C*T matrix was formed
Effective Fockian was calculated
Effective Fockian was diagonalized
Initial density was built
                      ------------------
                      INITIAL GUESS DONE
                      ------------------

 InCore treatment chosen:
   Memory dedicated               ...    1024 MB
   Memory needed                  ...      0 MB
   Number of tiny    integrals    ...     639
   Number of small   integrals    ...    2171
   Number of regular integrals    ...   40967

--------------
SCF ITERATIONS
--------------
ITER       Energy         Delta-E        Max-DP      RMS-DP      [F,P]     Damp
  0   -189.0402997453   0.000000000000 0.16983050  0.01559078  0.3355259 0.7000
  1   -189.1601343911  -0.119834645801 0.14367845  0.01248537  0.2227290 0.7000
                               ***Turning on DIIS***
  2   -189.2347074840  -0.074573092862 0.08951068  0.00788642  0.1298177 0.7000
  3   -189.2818189551  -0.047111471124 0.12446474  0.01422234  0.0879656 0.0000
  4   -189.3938602649  -0.112041309825 0.01636839  0.00195148  0.0121771 0.0000
  5   -189.3931523524   0.000707912508 0.00968424  0.00089896  0.0058677 0.0000
                      *** Initiating the SOSCF procedure ***
                           *** Shutting down DIIS ***
                      *** Re-Reading the Fockian *** 
                      *** Removing any level shift *** 
ITER      Energy       Delta-E        Grad      Rot      Max-DP    RMS-DP
  6   -189.39255504   0.0005973133  0.002393  0.002393  0.004971  0.000536
  7   -189.39521278  -0.0026577401  0.000780  0.001216  0.002019  0.000188
  8   -189.39521934  -0.0000065617  0.000312  0.001393  0.002210  0.000252
  9   -189.39522231  -0.0000029653  0.000183  0.000257  0.000530  0.000050
 10   -189.39522264  -0.0000003322  0.000104  0.000266  0.000546  0.000040
 11   -189.39522279  -0.0000001522  0.000043  0.000206  0.000385  0.000027
 12   -189.39522283  -0.0000000375  0.000023  0.000035  0.000054  0.000007
 13   -189.39522283  -0.0000000040  0.000008  0.000020  0.000040  0.000004
                  ***Gradient check signals convergence***
              ***Rediagonalizing the Fockian in SOSCF/NRSCF***

               *****************************************************
               *                     SUCCESS                       *
               *           SCF CONVERGED AFTER  14 CYCLES          *
               *****************************************************


----------------
TOTAL SCF ENERGY
----------------

Total Energy       :         -189.39522283 Eh           -5153.70602 eV

Components:
Nuclear Repulsion  :          104.05072768 Eh            2831.36424 eV
Electronic Energy  :         -293.44595051 Eh           -7985.07027 eV
One Electron Energy:         -463.46691848 Eh          -12611.57601 eV
Two Electron Energy:          170.02096797 Eh            4626.50575 eV

Virial components:
Potential Energy   :         -378.47264799 Eh          -10298.76433 eV
Kinetic Energy     :          189.07742515 Eh            5145.05831 eV
Virial Ratio       :            2.00168078


---------------
SCF CONVERGENCE
---------------

  Last Energy change         ...   -1.1492e-09  Tolerance :   1.0000e-08
  Last MAX-Density change    ...    9.0115e-06  Tolerance :   1.0000e-07
  Last RMS-Density change    ...    1.0492e-06  Tolerance :   5.0000e-09
  Last Orbital Gradient      ...    1.9890e-06  Tolerance :   1.0000e-05
  Last Orbital Rotation      ...    6.4803e-06  Tolerance :   1.0000e-05

             **** THE GBW FILE WAS UPDATED (acrolien.620.gbw) ****
             **** DENSITY acrolien.620.scfp WAS UPDATED ****
             **** ENERGY FILE WAS UPDATED (acrolien.620.en.tmp) ****
             **** THE GBW FILE WAS UPDATED (acrolien.620.gbw) ****
             **** DENSITY acrolien.620.scfp WAS UPDATED ****
----------------
ORBITAL ENERGIES
----------------

  NO   OCC          E(Eh)            E(eV) 
   0   2.0000     -20.333483      -553.3022 
   1   2.0000     -11.279917      -306.9422 
   2   2.0000     -11.194503      -304.6179 
   3   2.0000     -11.178439      -304.1808 
   4   2.0000      -1.367871       -37.2217 
   5   2.0000      -1.070151       -29.1203 
   6   2.0000      -0.885178       -24.0869 
   7   2.0000      -0.723369       -19.6839 
   8   2.0000      -0.701134       -19.0788 
   9   2.0000      -0.589563       -16.0428 
  10   2.0000      -0.567908       -15.4536 
  11   2.0000      -0.527466       -14.3531 
  12   2.0000      -0.524653       -14.2765 
  13   2.0000      -0.401988       -10.9386 
  14   2.0000      -0.366861        -9.9828 
  15   0.0000       0.113942         3.1005 
  16   0.0000       0.310468         8.4483 
  17   0.0000       0.521257        14.1841 
  18   0.0000       0.562415        15.3041 
  19   0.0000       0.631362        17.1802 
  20   0.0000       0.688342        18.7307 
  21   0.0000       0.767940        20.8967 
  22   0.0000       0.934893        25.4397 
  23   0.0000       0.952946        25.9310 

                    ********************************
                    * MULLIKEN POPULATION ANALYSIS *
                    ********************************

-----------------------
MULLIKEN ATOMIC CHARGES
-----------------------
   0 C :    0.144556
   1 O :   -0.366397
   2 C :   -0.203120
   3 C :   -0.172366
   4 H :    0.127856
   5 H :    0.147857
   6 H :    0.172683
   7 H :    0.148931
Sum of atomic charges:   -0.0000000

--------------------------------
MULLIKEN REDUCED ORBITAL CHARGES
--------------------------------
  0 C s       :     3.054316  s :     3.054316
      pz      :     0.867207  p :     2.801127
      px      :     1.071747
      py      :     0.862174
  1 O s       :     3.842744  s :     3.842744
      pz      :     1.207331  p :     4.523653
      px      :     1.927002
      py      :     1.389321
  2 C s       :     3.084835  s :     3.084835
      pz      :     1.081247  p :     3.118285
      px      :     0.971879
      py      :     1.065159
  3 C s       :     3.200975  s :     3.200975
      pz      :     0.849311  p :     2.971391
      px      :     1.042232
      py      :     1.079848
  4 H s       :     0.872144  s :     0.872144
  5 H s       :     0.852143  s :     0.852143
  6 H s       :     0.827317  s :     0.827317
  7 H s       :     0.851069  s :     0.851069


                     *******************************
                     * LOEWDIN POPULATION ANALYSIS *
                     *******************************

----------------------
LOEWDIN ATOMIC CHARGES
----------------------
   0 C :    0.137257
   1 O :   -0.285947
   2 C :   -0.163764
   3 C :   -0.076739
   4 H :    0.067822
   5 H :    0.097121
   6 H :    0.123291
   7 H :    0.100959

-------------------------------
LOEWDIN REDUCED ORBITAL CHARGES
-------------------------------
  0 C s       :     2.972927  s :     2.972927
      pz      :     0.870960  p :     2.889816
      px      :     1.082345
      py      :     0.936512
  1 O s       :     3.722257  s :     3.722257
      pz      :     1.206383  p :     4.563690
      px      :     1.929196
      py      :     1.428111
  2 C s       :     2.975319  s :     2.975319
      pz      :     1.075749  p :     3.188445
      px      :     1.040019
      py      :     1.072676
  3 C s       :     3.071846  s :     3.071846
      pz      :     0.852514  p :     3.004893
      px      :     1.075026
      py      :     1.077353
  4 H s       :     0.932178  s :     0.932178
  5 H s       :     0.902879  s :     0.902879
  6 H s       :     0.876709  s :     0.876709
  7 H s       :     0.899041  s :     0.899041


                      *****************************
                      * MAYER POPULATION ANALYSIS *
                      *****************************

  NA   - Mulliken gross atomic population
  ZA   - Total nuclear charge
  QA   - Mulliken gross atomic charge
  VA   - Mayer's total valence
  BVA  - Mayer's bonded valence
  FA   - Mayer's free valence

  ATOM       NA         ZA         QA         VA         BVA        FA
  0 C      5.8554     6.0000     0.1446     3.8956     3.8956    -0.0000
  1 O      8.3664     8.0000    -0.3664     2.0423     2.0423     0.0000
  2 C      6.2031     6.0000    -0.2031     3.9701     3.9701    -0.0000
  3 C      6.1724     6.0000    -0.1724     3.9079     3.9079    -0.0000
  4 H      0.8721     1.0000     0.1279     0.9837     0.9837    -0.0000
  5 H      0.8521     1.0000     0.1479     0.9781     0.9781     0.0000
  6 H      0.8273     1.0000     0.1727     0.9702     0.9702     0.0000
  7 H      0.8511     1.0000     0.1489     0.9778     0.9778     0.0000

  Mayer bond orders larger than 0.100000
B(  0-C ,  1-O ) :   1.8543 B(  0-C ,  2-C ) :   1.0942 B(  0-C ,  4-H ) :   0.9283 
B(  2-C ,  3-C ) :   1.8719 B(  2-C ,  5-H ) :   0.9597 B(  3-C ,  6-H ) :   0.9528 
B(  3-C ,  7-H ) :   0.9645 

-------
TIMINGS
-------

Total SCF time: 0 days 0 hours 0 min 4 sec 

Total time                  ....       4.467 sec
Sum of individual times     ....       0.560 sec  ( 12.5%)

Fock matrix formation       ....       0.117 sec  (  2.6%)
Diagonalization             ....       0.001 sec  (  0.0%)
Density matrix formation    ....       0.000 sec  (  0.0%)
Population analysis         ....       0.302 sec  (  6.8%)
Initial guess               ....       0.002 sec  (  0.0%)
Orbital Transformation      ....       0.000 sec  (  0.0%)
Orbital Orthonormalization  ....       0.000 sec  (  0.0%)
DIIS solution               ....       0.002 sec  (  0.0%)
SOSCF solution              ....       0.136 sec  (  3.0%)

Maximum memory used throughout the entire SCF-calculation: 225.0 MB
------------------------------------------------------------------------------
                         ORCA CIS CALCULATION
------------------------------------------------------------------------------

Input orbitals are from        ... acrolien.620.gbw
CI-vector output               ... acrolien.620.cis
Tamm-Dancoff approximation     ... operative
CIS-Integral strategy          ... AO-integrals
Integral handling              ... AO integral Conventional
Reference state                ... RHF
Generation of triplets         ... off
Follow IRoot                   ... off
Number of operators            ... 1
Orbital ranges used for CIS calculation:
 Operator 0:  Orbitals   4... 14  to  15... 23
XAS localization array:
 Operator 0:  Orbitals  -1... -1

------------------------
DAVIDSON-DIAGONALIZATION
------------------------

Dimension of the eigenvalue problem            ...     99
Number of roots to be determined               ...      1
Maximum size of the expansion space            ...     10
Maximum number of iterations                   ...    100
Convergence tolerance for the residual         ...    2.500e-07
Convergence tolerance for the energies         ...    2.500e-07
Orthogonality tolerance                        ...    1.000e-14
Level Shift                                    ...    0.000e+00
Constructing the preconditioner                ... o.k.
Building the initial guess                     ... o.k.
Number of trial vectors determined             ...     10


                       ****Iteration    0****

   Memory handling for direct AO based CIS:
   Memory per vector needed      ...     1 MB
   Memory needed                 ...     0 MB
   Memory available              ...   512 MB
   Number of vectors per batch   ...   512
   Number of batches             ...     1
   Time for densities:            0.000
   SHARK[4]
   Time for Sigma-Completion:     0.000
   Size of expansion space: 3
   Lowest Energy          :     0.195644950222
   Maximum Energy change  :     0.195644950222 (vector 0)
   Maximum residual norm  :     0.014913110429

                       ****Iteration    1****
   Time for densities:            0.000
   SHARK[4]
   Time for Sigma-Completion:     0.000
   Size of expansion space: 4
   Lowest Energy          :     0.139783293764
   Maximum Energy change  :     0.055861656457 (vector 0)
   Maximum residual norm  :     0.000993481820

                       ****Iteration    2****
   Time for densities:            0.000
   SHARK[4]
   Time for Sigma-Completion:     0.000
   Size of expansion space: 5
   Lowest Energy          :     0.136964804214
   Maximum Energy change  :     0.002818489551 (vector 0)
   Maximum residual norm  :     0.000120815398

                       ****Iteration    3****
   Time for densities:            0.000
   SHARK[4]
   Time for Sigma-Completion:     0.000
   Size of expansion space: 6
   Lowest Energy          :     0.136729502616
   Maximum Energy change  :     0.000235301597 (vector 0)
   Maximum residual norm  :     0.000017181719

                       ****Iteration    4****
   Time for densities:            0.000
   SHARK[4]
   Time for Sigma-Completion:     0.000
   Size of expansion space: 7
   Lowest Energy          :     0.136703584049
   Maximum Energy change  :     0.000025918567 (vector 0)
   Maximum residual norm  :     0.000001677465

                       ****Iteration    5****
   Time for densities:            0.000
   SHARK[4]
   Time for Sigma-Completion:     0.000
   Size of expansion space: 8
   Lowest Energy          :     0.136701228288
   Maximum Energy change  :     0.000002355762 (vector 0)
   Maximum residual norm  :     0.000000075615

      *** CONVERGENCE OF RESIDUAL NORM REACHED ***

Storing the converged CI vectors               ... acrolien.620.cis1

                 *** DAVIDSON DONE ***

Total time for solving the CIS problem:     1.214sec

-----------------------------
CIS-EXCITED STATES (SINGLETS)
-----------------------------

the weight of the individual excitations are printed if larger than 1.0e-02

STATE  1:  E=   0.136701 au      3.720 eV    30002.5 cm**-1 <S**2> =   0.000000
    10a ->  15a  :     0.013836 (c= -0.11762705)
    10a ->  16a  :     0.010086 (c= -0.10043059)
    13a ->  15a  :     0.791354 (c= -0.88958091)
    13a ->  16a  :     0.167800 (c= -0.40963423)


----------------------
CIS-EXCITATION SPECTRA
----------------------

Center of mass = (  0.5773, -0.9093, -0.0007)
Calculating the Dipole integrals                  ... done
Transforming integrals                            ... done
Calculating the Linear Momentum integrals         ... done
Transforming integrals                            ... done
Calculating angular momentum integrals            ... done
Transforming integrals                            ... done

-----------------------------------------------------------------------------
         ABSORPTION SPECTRUM VIA TRANSITION ELECTRIC DIPOLE MOMENTS
-----------------------------------------------------------------------------
State   Energy    Wavelength  fosc         T2        TX        TY        TZ  
        (cm-1)      (nm)                 (au**2)    (au)      (au)      (au) 
-----------------------------------------------------------------------------
   1   30002.5    333.3   0.000050848   0.00056   0.00141  -0.00153   0.02353

-----------------------------------------------------------------------------
         ABSORPTION SPECTRUM VIA TRANSITION VELOCITY DIPOLE MOMENTS
-----------------------------------------------------------------------------
State   Energy    Wavelength   fosc        P2         PX        PY        PZ  
        (cm-1)      (nm)                 (au**2)     (au)      (au)      (au) 
-----------------------------------------------------------------------------
   1   30002.5    333.3   0.000896259   0.00018  -0.00077   0.00147  -0.01346

-------------------------------------------------------------------
                             CD SPECTRUM
-------------------------------------------------------------------
State  Energy     Wavelength     R         MX        MY        MZ   
       (cm-1)       (nm)     (1e40*cgs)   (au)      (au)      (au)  
-------------------------------------------------------------------
   1   30002.5    333.3      0.24932   0.04993   0.45016   0.04876

-------------------------------------------------------------------
         CD SPECTRUM VIA TRANSITION VELOCITY DIPOLE MOMENTS        
-------------------------------------------------------------------
State  Energy     Wavelength     R         MX        MY        MZ   
       (cm-1)       (nm)     (1e40*cgs)   (au)      (au)      (au)  
-------------------------------------------------------------------
   1   30002.5    333.3     -0.11554   0.04993   0.45016   0.04876

Total run time:        2.328 sec

           *** ORCA-CIS/TD-DFT FINISHED WITHOUT ERROR ***

Maximum memory used throughout the entire CIS-calculation: 51.7 MB

-----------------------
CIS/TD-DFT TOTAL ENERGY
-----------------------

    E(SCF)  =   -189.395222833 Eh
    DE(CIS) =      0.136701228 Eh (Root  1)
    ----------------------------- ---------
    E(tot)  =   -189.258521605 Eh



-------------------------------------------------------------------------------
                          DFT DISPERSION CORRECTION                            
                                                                               
                              DFTD3 V3.1  Rev 1                                
                          USING Becke-Johnson damping                          
-------------------------------------------------------------------------------
Hartree-Fock is recognized
Active option DFTDOPT                   ...         4   

molecular C6(AA) [au] = 661.142890 


            DFT-D V3
 parameters
 using HF/MINIX parameters
 s6 scaling factor         :     1.0000 
 a1 scaling factor         :     0.4171 
 s8 scaling factor         :     0.8777 
 a2 scaling factor         :     2.9149 
 ad hoc parameters k1-k3   :    16.0000     1.3333    -4.0000 

 Edisp/kcal,au: -16.220311781057  -0.025848709416 
 E6   /kcal   :  -8.960477319 
 E8   /kcal   :  -7.259834462 
 % E8         :  44.757675193 

-------------------------   ----------------
Dispersion correction           -0.025848709
-------------------------   ----------------

------------------   -----------------
gCP+bas correction        -0.041048792
------------------   -----------------
----------------------------   ----------------
Total correction to HF/MINIX       -0.066897501
----------------------------   ----------------


-------------------------   --------------------
FINAL SINGLE POINT ENERGY      -189.325419106103
-------------------------   --------------------


                            ***************************************
                            *     ORCA property calculations      *
                            ***************************************

                                    ---------------------
                                    Active property flags
                                    ---------------------
   (+) Dipole Moment


------------------------------------------------------------------------------
                       ORCA ELECTRIC PROPERTIES CALCULATION
------------------------------------------------------------------------------

Dipole Moment Calculation                       ... on
Quadrupole Moment Calculation                   ... off
Polarizability Calculation                      ... off
GBWName                                         ... acrolien.620.gbw
Electron density                                ... acrolien.620.scfp
The origin for moment calculation is the CENTER OF MASS  = ( 0.577254, -0.909267 -0.000684)

-------------
DIPOLE MOMENT
-------------
                                X             Y             Z
Electronic contribution:     -1.62342      -1.63182       0.11696
Nuclear contribution   :      2.22400       2.59284      -0.08438
                        -----------------------------------------
Total Dipole Moment    :      0.60058       0.96102       0.03259
                        -----------------------------------------
Magnitude (a.u.)       :      1.13372
Magnitude (Debye)      :      2.88169



--------------------
Rotational spectrum 
--------------------
 
Rotational constants in cm-1:     0.729150     0.213529     0.165751 
Rotational constants in MHz : 21859.380970  6401.425293  4969.092756 

 Dipole components along the rotational axes: 
x,y,z [a.u.] :     1.028979    -0.474710     0.034289 
x,y,z [Debye]:     2.615456    -1.206616     0.087156 

 

Timings for individual modules:

Sum of individual times         ...       10.521 sec (=   0.175 min)
GTO integral calculation        ...        3.112 sec (=   0.052 min)  29.6 %
SCF iterations                  ...        4.901 sec (=   0.082 min)  46.6 %
CIS module                      ...        2.507 sec (=   0.042 min)  23.8 %
                             ****ORCA TERMINATED NORMALLY****
TOTAL RUN TIME: 0 days 0 hours 0 minutes 13 seconds 163 msec
