
                                 *****************
                                 * O   R   C   A *
                                 *****************

                                            #,                                       
                                            ###                                      
                                            ####                                     
                                            #####                                    
                                            ######                                   
                                           ########,                                 
                                     ,,################,,,,,                         
                               ,,#################################,,                 
                          ,,##########################################,,             
                       ,#########################################, ''#####,          
                    ,#############################################,,   '####,        
                  ,##################################################,,,,####,       
                ,###########''''           ''''###############################       
              ,#####''   ,,,,##########,,,,          '''####'''          '####       
            ,##' ,,,,###########################,,,                        '##       
           ' ,,###''''                  '''############,,,                           
         ,,##''                                '''############,,,,        ,,,,,,###''
      ,#''                                            '''#######################'''  
     '                                                          ''''####''''         
             ,#######,   #######,   ,#######,      ##                                
            ,#'     '#,  ##    ##  ,#'     '#,    #''#        ######   ,####,        
            ##       ##  ##   ,#'  ##            #'  '#       #        #'  '#        
            ##       ##  #######   ##           ,######,      #####,   #    #        
            '#,     ,#'  ##    ##  '#,     ,#' ,#      #,         ##   #,  ,#        
             '#######'   ##     ##  '#######'  #'      '#     #####' # '####'        



                  #######################################################
                  #                        -***-                        #
                  #          Department of theory and spectroscopy      #
                  #    Directorship and core code : Frank Neese         #
                  #        Max Planck Institute fuer Kohlenforschung    #
                  #                Kaiser Wilhelm Platz 1               #
                  #                 D-45470 Muelheim/Ruhr               #
                  #                      Germany                        #
                  #                                                     #
                  #                  All rights reserved                #
                  #                        -***-                        #
                  #######################################################


                         Program Version 5.0.3 -  RELEASE  -


 With contributions from (in alphabetic order):
   Daniel Aravena         : Magnetic Suceptibility
   Michael Atanasov       : Ab Initio Ligand Field Theory (pilot matlab implementation)
   Alexander A. Auer      : GIAO ZORA, VPT2 properties, NMR spectrum
   Ute Becker             : Parallelization
   Giovanni Bistoni       : ED, misc. LED, open-shell LED, HFLD
   Martin Brehm           : Molecular dynamics
   Dmytro Bykov           : SCF Hessian
   Vijay G. Chilkuri      : MRCI spin determinant printing, contributions to CSF-ICE
   Dipayan Datta          : RHF DLPNO-CCSD density
   Achintya Kumar Dutta   : EOM-CC, STEOM-CC
   Dmitry Ganyushin       : Spin-Orbit,Spin-Spin,Magnetic field MRCI
   Miquel Garcia          : C-PCM and meta-GGA Hessian, CC/C-PCM, Gaussian charge scheme
   Yang Guo               : DLPNO-NEVPT2, F12-NEVPT2, CIM, IAO-localization
   Andreas Hansen         : Spin unrestricted coupled pair/coupled cluster methods
   Benjamin Helmich-Paris : MC-RPA, TRAH-SCF, COSX integrals
   Lee Huntington         : MR-EOM, pCC
   Robert Izsak           : Overlap fitted RIJCOSX, COSX-SCS-MP3, EOM
   Marcus Kettner         : VPT2
   Christian Kollmar      : KDIIS, OOCD, Brueckner-CCSD(T), CCSD density, CASPT2, CASPT2-K
   Simone Kossmann        : Meta GGA functionals, TD-DFT gradient, OOMP2, MP2 Hessian
   Martin Krupicka        : Initial AUTO-CI
   Lucas Lang             : DCDCAS
   Marvin Lechner         : AUTO-CI (C++ implementation), FIC-MRCC
   Dagmar Lenk            : GEPOL surface, SMD
   Dimitrios Liakos       : Extrapolation schemes; Compound Job, initial MDCI parallelization
   Dimitrios Manganas     : Further ROCIS development; embedding schemes
   Dimitrios Pantazis     : SARC Basis sets
   Anastasios Papadopoulos: AUTO-CI, single reference methods and gradients
   Taras Petrenko         : DFT Hessian,TD-DFT gradient, ASA, ECA, R-Raman, ABS, FL, XAS/XES, NRVS
   Peter Pinski           : DLPNO-MP2, DLPNO-MP2 Gradient
   Christoph Reimann      : Effective Core Potentials
   Marius Retegan         : Local ZFS, SOC
   Christoph Riplinger    : Optimizer, TS searches, QM/MM, DLPNO-CCSD(T), (RO)-DLPNO pert. Triples
   Tobias Risthaus        : Range-separated hybrids, TD-DFT gradient, RPA, STAB
   Michael Roemelt        : Original ROCIS implementation
   Masaaki Saitow         : Open-shell DLPNO-CCSD energy and density
   Barbara Sandhoefer     : DKH picture change effects
   Avijit Sen             : IP-ROCIS
   Kantharuban Sivalingam : CASSCF convergence, NEVPT2, FIC-MRCI
   Bernardo de Souza      : ESD, SOC TD-DFT
   Georgi Stoychev        : AutoAux, RI-MP2 NMR, DLPNO-MP2 response
   Willem Van den Heuvel  : Paramagnetic NMR
   Boris Wezisla          : Elementary symmetry handling
   Frank Wennmohs         : Technical directorship


 We gratefully acknowledge several colleagues who have allowed us to
 interface, adapt or use parts of their codes:
   Stefan Grimme, W. Hujo, H. Kruse, P. Pracht,  : VdW corrections, initial TS optimization,
                  C. Bannwarth, S. Ehlert          DFT functionals, gCP, sTDA/sTD-DF
   Ed Valeev, F. Pavosevic, A. Kumar             : LibInt (2-el integral package), F12 methods
   Garnet Chan, S. Sharma, J. Yang, R. Olivares  : DMRG
   Ulf Ekstrom                                   : XCFun DFT Library
   Mihaly Kallay                                 : mrcc  (arbitrary order and MRCC methods)
   Jiri Pittner, Ondrej Demel                    : Mk-CCSD
   Frank Weinhold                                : gennbo (NPA and NBO analysis)
   Christopher J. Cramer and Donald G. Truhlar   : smd solvation model
   Lars Goerigk                                  : TD-DFT with DH, B97 family of functionals
   V. Asgeirsson, H. Jonsson                     : NEB implementation
   FAccTs GmbH                                   : IRC, NEB, NEB-TS, DLPNO-Multilevel, CI-OPT
                                                   MM, QMMM, 2- and 3-layer-ONIOM, Crystal-QMMM,
                                                   LR-CPCM, SF, NACMEs, symmetry and pop. for TD-DFT,
                                                   nearIR, NL-DFT gradient (VV10), updates on ESD,
                                                   ML-optimized integration grids
   S Lehtola, MJT Oliveira, MAL Marques          : LibXC Library
   Liviu Ungur et al                             : ANISO software


 Your calculation uses the libint2 library for the computation of 2-el integrals
 For citations please refer to: http://libint.valeyev.net

 Your ORCA version has been built with support for libXC version: 5.1.0
 For citations please refer to: https://tddft.org/programs/libxc/

 This ORCA versions uses:
   CBLAS   interface :  Fast vector & matrix operations
   LAPACKE interface :  Fast linear algebra routines
   SCALAPACK package :  Parallel linear algebra routines
   Shared memory     :  Shared parallel matrices
   BLAS/LAPACK       :  OpenBLAS 0.3.15  USE64BITINT DYNAMIC_ARCH NO_AFFINITY Haswell SINGLE_THREADED
        Core in use  :  Haswell
   Copyright (c) 2011-2014, The OpenBLAS Project


Your calculation utilizes the geometrical counterpoise correction gCP
Please cite in your paper:
H.Kruse, S. Grimme J.Chem.Phys., 136, (2012), 154101 
   

Your calculation utilizes the atom-pairwise dispersion correction
with the Becke-Johnson damping scheme (D3BJ)
Cite in your paper:
S.Grimme, S.Ehrlich, L.Goerigk, J Comput Chem, (2011), 32, 1456–1465 
S.Grimme, J.Antony, S.Ehrlich and H.Krieg, J.Chem.Phys., 132, (2010), 154104 
   

================================================================================

----- Orbital basis set information -----
Your calculation utilizes the basis: MINIX,
   a combination of small basis sets by S. Grimme (see manual for definitions).

================================================================================
                                        WARNINGS
                       Please study these warnings very carefully!
================================================================================

INFO   : Checking CIS options ...

INFO   : the flag for use of the SHARK integral package has been found!

================================================================================
                                       INPUT FILE
================================================================================
NAME = acrolien.1183.com
|  1> ! HF-3c
|  2> !TightSCF
|  3> %scf
|  4>  ConvForced true
|  5>  convergence tight
|  6>  MaxIter 500
|  7> end
|  8>  
|  9> %tddft 
| 10>  nroots 1
| 11> end
| 12> 
| 13> # 	20448
| 14> * xyz 0 1
| 15> 		C   -0.603967  -0.434323   0.013378
| 16> 		O   -0.587925  -1.625037  -0.008109
| 17> 		C    0.657230   0.385336  -0.050277
| 18> 		C    1.839984  -0.124737   0.013356
| 19> 		H   -1.565612   0.194175   0.146404
| 20> 		H    0.530671   1.476810   0.147309
| 21> 		H    2.249179  -1.079353   0.114011
| 22> 		H    2.530209   0.568878   0.004017
| 23> *
| 24> 
| 25>                          ****END OF INPUT****
================================================================================

                       ****************************
                       * Single Point Calculation *
                       ****************************

---------------------------------
CARTESIAN COORDINATES (ANGSTROEM)
---------------------------------
  C     -0.603967   -0.434323    0.013378
  O     -0.587925   -1.625037   -0.008109
  C      0.657230    0.385336   -0.050277
  C      1.839984   -0.124737    0.013356
  H     -1.565612    0.194175    0.146404
  H      0.530671    1.476810    0.147309
  H      2.249179   -1.079353    0.114011
  H      2.530209    0.568878    0.004017

----------------------------
CARTESIAN COORDINATES (A.U.)
----------------------------
  NO LB      ZA    FRAG     MASS         X           Y           Z
   0 C     6.0000    0    12.011   -1.141332   -0.820752    0.025281
   1 O     8.0000    0    15.999   -1.111017   -3.070875   -0.015324
   2 C     6.0000    0    12.011    1.241985    0.728180   -0.095010
   3 C     6.0000    0    12.011    3.477066   -0.235719    0.025239
   4 H     1.0000    0     1.008   -2.958578    0.366938    0.276663
   5 H     1.0000    0     1.008    1.002823    2.790766    0.278374
   6 H     1.0000    0     1.008    4.250332   -2.039682    0.215450
   7 H     1.0000    0     1.008    4.781402    1.075024    0.007591

--------------------------------
INTERNAL COORDINATES (ANGSTROEM)
--------------------------------
 C      0   0   0     0.000000000000     0.00000000     0.00000000
 O      1   0   0     1.191015896925     0.00000000     0.00000000
 C      1   2   0     1.505493509822   122.15835266     0.00000000
 C      3   1   2     1.289624227647   123.42755684   352.25507885
 H      1   2   3     1.156488979068   123.82035731   183.74665905
 H      3   1   2     1.116410722160   115.45703384   189.74634353
 H      4   3   1     1.043486312563   136.57215391   359.71445353
 H      4   3   1     0.978570148620   111.47354296   183.07814207

---------------------------
INTERNAL COORDINATES (A.U.)
---------------------------
 C      0   0   0     0.000000000000     0.00000000     0.00000000
 O      1   0   0     2.250693866336     0.00000000     0.00000000
 C      1   2   0     2.844970429959   122.15835266     0.00000000
 C      3   1   2     2.437036605922   123.42755684   352.25507885
 H      1   2   3     2.185447447336   123.82035731   183.74665905
 H      3   1   2     2.109710517855   115.45703384   189.74634353
 H      4   3   1     1.971903355239   136.57215391   359.71445353
 H      4   3   1     1.849229583723   111.47354296   183.07814207

---------------------
BASIS SET INFORMATION
---------------------
There are 3 groups of distinct atoms

 Group   1 Type C   : 6s3p contracted to 2s1p pattern {33/3}
 Group   2 Type O   : 6s3p contracted to 2s1p pattern {33/3}
 Group   3 Type H   : 3s contracted to 1s pattern {3}

Atom   0C    basis set group =>   1
Atom   1O    basis set group =>   2
Atom   2C    basis set group =>   1
Atom   3C    basis set group =>   1
Atom   4H    basis set group =>   3
Atom   5H    basis set group =>   3
Atom   6H    basis set group =>   3
Atom   7H    basis set group =>   3
------------------------------------------------------------------------------
                           ORCA GTO INTEGRAL CALCULATION
------------------------------------------------------------------------------
------------------------------------------------------------------------------
                   ___                                                        
                  /   \      - P O W E R E D   B Y -                         
                 /     \                                                     
                 |  |  |   _    _      __       _____    __    __             
                 |  |  |  | |  | |    /  \     |  _  \  |  |  /  |          
                  \  \/   | |  | |   /    \    | | | |  |  | /  /          
                 / \  \   | |__| |  /  /\  \   | |_| |  |  |/  /          
                |  |  |   |  __  | /  /__\  \  |    /   |      \           
                |  |  |   | |  | | |   __   |  |    \   |  |\   \          
                \     /   | |  | | |  |  |  |  | |\  \  |  | \   \       
                 \___/    |_|  |_| |__|  |__|  |_| \__\ |__|  \__/        
                                                                              
                      - O R C A' S   B I G   F R I E N D -                    
                                      &                                       
                       - I N T E G R A L  F E E D E R -                       
                                                                              
 v1 FN, 2020, v2 2021                                                         
------------------------------------------------------------------------------


Reading SHARK input file acrolien.1183.SHARKINP.tmp ... ok
----------------------
SHARK INTEGRAL PACKAGE
----------------------

Number of atoms                             ...      8
Number of basis functions                   ...     24
Number of shells                            ...     16
Maximum angular momentum                    ...      1
Integral batch strategy                     ... SHARK/LIBINT Hybrid
RI-J (if used) integral strategy            ... SPLIT-RIJ (Revised 2003 algorithm where possible)
Printlevel                                  ...      1
Contraction scheme used                     ... SEGMENTED contraction
Coulomb Range Separation                    ... NOT USED
Exchange Range Separation                   ... NOT USED
Finite Nucleus Model                        ... NOT USED
Auxiliary Coulomb fitting basis             ... NOT available
Auxiliary J/K fitting basis                 ... NOT available
Auxiliary Correlation fitting basis         ... NOT available
Auxiliary 'external' fitting basis          ... NOT available
Integral threshold                          ...     2.500000e-11
Primitive cut-off                           ...     2.500000e-12
Primitive pair pre-selection threshold      ...     2.500000e-12

Calculating pre-screening integrals         ... done (  0.0 sec) Dimension = 16
Organizing shell pair data                  ... done (  0.1 sec)
Shell pair information
Total number of shell pairs                 ...       136
Shell pairs after pre-screening             ...       133
Total number of primitive shell pairs       ...      1224
Primitive shell pairs kept                  ...       997
          la=0 lb=0:     75 shell pairs
          la=1 lb=0:     48 shell pairs
          la=1 lb=1:     10 shell pairs

Calculating one electron integrals          ... done (  0.0 sec)
Calculating Nuclear repulsion               ... done (  0.2 sec) ENN=    105.608533861036 Eh
Calculating 4-index integrals               ... 
    -> SHARK/Ints2Disk: Thresh =     2.500000e-11 TCut=    2.500000e-12 
    -> calling libint FockFlag=2 Lmax_loc=1
    ->Total LIBINT loop time =    0.000 sec
    -> L=0 0 0 0:     0.003 sec done=      2826 (=100.0%) skipped=         0 
    -> L=1 0 0 0:     0.007 sec done=      3596 (=100.0%) skipped=         0 
    -> L=1 0 1 0:     0.004 sec done=      1176 (=100.0%) skipped=         0 
    -> L=1 1 0 0:     0.003 sec done=       750 (=100.0%) skipped=         0 
    -> L=1 1 1 0:     0.004 sec done=       480 (=100.0%) skipped=         0 
    -> L=1 1 1 1:     0.001 sec done=        55 (=100.0%) skipped=         0 
    ->Total SHARK integral loop time =    0.125 sec
    -> Total Integral generation matrix time =    0.713 sec
    -> Number of small integrals   =       697
    -> Number of medium integrals  =      2937
    -> Number of large integrals   =     40109
    -> Number of MB stored         =         0 MB


SHARK setup successfully completed in   2.3 seconds

Maximum memory used throughout the entire GTOINT-calculation: 29.5 MB
-------------------------------------------------------------------------------
                                 ORCA SCF
-------------------------------------------------------------------------------

------------
SCF SETTINGS
------------
Hamiltonian:
 Ab initio Hamiltonian  Method          .... Hartree-Fock(GTOs)


General Settings:
 Integral files         IntName         .... acrolien.1183
 Hartree-Fock type      HFTyp           .... RHF
 Total Charge           Charge          ....    0
 Multiplicity           Mult            ....    1
 Number of Electrons    NEL             ....   30
 Basis Dimension        Dim             ....   24
 Nuclear Repulsion      ENuc            ....    105.6085338610 Eh

Convergence Acceleration:
 DIIS                   CNVDIIS         .... on
   Start iteration      DIISMaxIt       ....    12
   Startup error        DIISStart       ....  0.200000
   # of expansion vecs  DIISMaxEq       ....     5
   Bias factor          DIISBfac        ....   1.050
   Max. coefficient     DIISMaxC        ....  10.000
 Trust-Rad. Augm. Hess. CNVTRAH         .... auto
   Auto Start mean grad. ratio tolernc. ....  1.125000
   Auto Start start iteration           ....    20
   Auto Start num. interpolation iter.  ....    10
   Max. Number of Micro iterations      ....    16
   Max. Number of Macro iterations      .... Maxiter - #DIIS iter
   Number of Davidson start vectors     ....     2
   Converg. threshold I  (grad. norm)   ....   1.000e-05
   Converg. threshold II (energy diff.) ....   1.000e-08
   Grad. Scal. Fac. for Micro threshold ....   0.100
   Minimum threshold for Micro iter.    ....   0.010
   NR start threshold (gradient norm)   ....   0.001
   Initial trust radius                 ....   0.400
   Minimum AH scaling param. (alpha)    ....   1.000
   Maximum AH scaling param. (alpha)    .... 1000.000
   Orbital update algorithm             .... Taylor
   White noise on init. David. guess    .... on
   Maximum white noise                  ....   0.010
   Quad. conv. algorithm                .... NR
 SOSCF                  CNVSOSCF        .... on
   Start iteration      SOSCFMaxIt      ....   150
   Startup grad/error   SOSCFStart      ....  0.003300
 Level Shifting         CNVShift        .... on
   Level shift para.    LevelShift      ....    0.2500
   Turn off err/grad.   ShiftErr        ....    0.0010
 Zerner damping         CNVZerner       .... off
 Static damping         CNVDamp         .... on
   Fraction old density DampFac         ....    0.7000
   Max. Damping (<1)    DampMax         ....    0.9800
   Min. Damping (>=0)   DampMin         ....    0.0000
   Turn off err/grad.   DampErr         ....    0.1000
 Fernandez-Rico         CNVRico         .... off

SCF Procedure:
 Maximum # iterations   MaxIter         ....   500
 SCF integral mode      SCFMode         .... Conventional
 Integral Threshold     Thresh          ....  2.500e-11 Eh
 Primitive CutOff       TCut            ....  2.500e-12 Eh
 Integral Buffer length BufferLength    .... 1048576
 Integral index format  IndFormat       ....     0
 Integral value format  ValFormat       ....     0
 Integral Storage       Thresh          ....  2.500e-11 Eh

Convergence Tolerance:
 Convergence Check Mode ConvCheckMode   .... Total+1el-Energy
 Convergence forced     ConvForced      .... 1
 Energy Change          TolE            ....  1.000e-08 Eh
 1-El. energy change                    ....  1.000e-05 Eh
 Orbital Gradient       TolG            ....  1.000e-05
 Orbital Rotation angle TolX            ....  1.000e-05
 DIIS Error             TolErr          ....  5.000e-07


Diagonalization of the overlap matrix:
Smallest eigenvalue                        ... 1.603e-01
Time for diagonalization                   ...    0.000 sec
Threshold for overlap eigenvalues          ... 1.000e-08
Number of eigenvalues below threshold      ... 0
Time for construction of square roots      ...    0.804 sec
Total time needed                          ...    0.804 sec

--------------------------------
INITIAL GUESS: MINIMAL BASIS EHT
--------------------------------
The minimal basis has 24 functions
EHT matrix was diagonalized
Basis set overlap was calculated now projecting the orbitals
Using GuessMode=FMatrix for the initial guess
C*T matrix was formed
Effective Fockian was calculated
Effective Fockian was diagonalized
Initial density was built
                      ------------------
                      INITIAL GUESS DONE
                      ------------------

 InCore treatment chosen:
   Memory dedicated               ...    1024 MB
   Memory needed                  ...      0 MB
   Number of tiny    integrals    ...     697
   Number of small   integrals    ...    2937
   Number of regular integrals    ...   40109

--------------
SCF ITERATIONS
--------------
ITER       Energy         Delta-E        Max-DP      RMS-DP      [F,P]     Damp
  0   -188.9872798127   0.000000000000 0.14185760  0.01429439  0.3306022 0.7000
  1   -189.1130061287  -0.125726315988 0.11887561  0.01144643  0.2194422 0.7000
                               ***Turning on DIIS***
  2   -189.1962210873  -0.083214958639 0.07519263  0.00753698  0.1446527 0.7000
  3   -189.2665875432  -0.070366455878 0.03552843  0.00464539  0.1037796 0.7000
  4   -189.2954106037  -0.028823060550 0.09524562  0.01148229  0.0734813 0.0000
  5   -189.3869467037  -0.091536099951 0.01257594  0.00124164  0.0090710 0.0000
                      *** Initiating the SOSCF procedure ***
                           *** Shutting down DIIS ***
                      *** Re-Reading the Fockian *** 
                      *** Removing any level shift *** 
ITER      Energy       Delta-E        Grad      Rot      Max-DP    RMS-DP
  6   -189.38692896   0.0000177402  0.001335  0.001335  0.002980  0.000373
  7   -189.38709986  -0.0001708964  0.000623  0.001123  0.001755  0.000210
  8   -189.38710673  -0.0000068744  0.000262  0.000821  0.001086  0.000141
  9   -189.38710804  -0.0000013025  0.000083  0.000085  0.000253  0.000029
 10   -189.38710813  -0.0000000949  0.000048  0.000080  0.000171  0.000014
 11   -189.38710816  -0.0000000304  0.000024  0.000120  0.000256  0.000018
 12   -189.38710818  -0.0000000151  0.000008  0.000022  0.000046  0.000004
                 **** Energy Check signals convergence ****
              ***Rediagonalizing the Fockian in SOSCF/NRSCF***

               *****************************************************
               *                     SUCCESS                       *
               *           SCF CONVERGED AFTER  13 CYCLES          *
               *****************************************************


----------------
TOTAL SCF ENERGY
----------------

Total Energy       :         -189.38710818 Eh           -5153.48521 eV

Components:
Nuclear Repulsion  :          105.60853386 Eh            2873.75431 eV
Electronic Energy  :         -294.99564204 Eh           -8027.23952 eV
One Electron Energy:         -465.81360739 Eh          -12675.43266 eV
Two Electron Energy:          170.81796535 Eh            4648.19315 eV

Virial components:
Potential Energy   :         -378.62514930 Eh          -10302.91410 eV
Kinetic Energy     :          189.23804112 Eh            5149.42889 eV
Virial Ratio       :            2.00078772


---------------
SCF CONVERGENCE
---------------

  Last Energy change         ...   -1.1495e-09  Tolerance :   1.0000e-08
  Last MAX-Density change    ...    2.3147e-05  Tolerance :   1.0000e-07
  Last RMS-Density change    ...    2.4814e-06  Tolerance :   5.0000e-09
  Last Orbital Gradient      ...    5.2435e-06  Tolerance :   1.0000e-05
  Last Orbital Rotation      ...    1.2674e-05  Tolerance :   1.0000e-05

             **** THE GBW FILE WAS UPDATED (acrolien.1183.gbw) ****
             **** DENSITY acrolien.1183.scfp WAS UPDATED ****
             **** ENERGY FILE WAS UPDATED (acrolien.1183.en.tmp) ****
             **** THE GBW FILE WAS UPDATED (acrolien.1183.gbw) ****
             **** DENSITY acrolien.1183.scfp WAS UPDATED ****
----------------
ORBITAL ENERGIES
----------------

  NO   OCC          E(Eh)            E(eV) 
   0   2.0000     -20.375888      -554.4561 
   1   2.0000     -11.299856      -307.4847 
   2   2.0000     -11.195239      -304.6379 
   3   2.0000     -11.194000      -304.6042 
   4   2.0000      -1.417660       -38.5765 
   5   2.0000      -1.097692       -29.8697 
   6   2.0000      -0.897408       -24.4197 
   7   2.0000      -0.755522       -20.5588 
   8   2.0000      -0.708914       -19.2905 
   9   2.0000      -0.630705       -17.1623 
  10   2.0000      -0.604107       -16.4386 
  11   2.0000      -0.553096       -15.0505 
  12   2.0000      -0.539765       -14.6878 
  13   2.0000      -0.415286       -11.3005 
  14   2.0000      -0.403707       -10.9854 
  15   0.0000       0.139483         3.7955 
  16   0.0000       0.310495         8.4490 
  17   0.0000       0.533983        14.5304 
  18   0.0000       0.609801        16.5935 
  19   0.0000       0.646517        17.5926 
  20   0.0000       0.766817        20.8661 
  21   0.0000       0.879772        23.9398 
  22   0.0000       0.960697        26.1419 
  23   0.0000       1.108169        30.1548 

                    ********************************
                    * MULLIKEN POPULATION ANALYSIS *
                    ********************************

-----------------------
MULLIKEN ATOMIC CHARGES
-----------------------
   0 C :    0.182203
   1 O :   -0.353390
   2 C :   -0.156967
   3 C :   -0.258762
   4 H :    0.133539
   5 H :    0.145487
   6 H :    0.164401
   7 H :    0.143490
Sum of atomic charges:    0.0000000

--------------------------------
MULLIKEN REDUCED ORBITAL CHARGES
--------------------------------
  0 C s       :     3.066623  s :     3.066623
      pz      :     0.853677  p :     2.751175
      px      :     1.051326
      py      :     0.846172
  1 O s       :     3.828796  s :     3.828796
      pz      :     1.187119  p :     4.524594
      px      :     1.900080
      py      :     1.437396
  2 C s       :     3.088630  s :     3.088630
      pz      :     1.017718  p :     3.068337
      px      :     0.985108
      py      :     1.065511
  3 C s       :     3.099637  s :     3.099637
      pz      :     0.949189  p :     3.159124
      px      :     1.077862
      py      :     1.132073
  4 H s       :     0.866461  s :     0.866461
  5 H s       :     0.854513  s :     0.854513
  6 H s       :     0.835599  s :     0.835599
  7 H s       :     0.856510  s :     0.856510


                     *******************************
                     * LOEWDIN POPULATION ANALYSIS *
                     *******************************

----------------------
LOEWDIN ATOMIC CHARGES
----------------------
   0 C :    0.151329
   1 O :   -0.250192
   2 C :   -0.116174
   3 C :   -0.145501
   4 H :    0.073983
   5 H :    0.095137
   6 H :    0.105763
   7 H :    0.085655

-------------------------------
LOEWDIN REDUCED ORBITAL CHARGES
-------------------------------
  0 C s       :     2.995684  s :     2.995684
      pz      :     0.858157  p :     2.852987
      px      :     1.061195
      py      :     0.933636
  1 O s       :     3.688869  s :     3.688869
      pz      :     1.183526  p :     4.561323
      px      :     1.901673
      py      :     1.476124
  2 C s       :     2.976993  s :     2.976993
      pz      :     1.014341  p :     3.139181
      px      :     1.051247
      py      :     1.073592
  3 C s       :     2.956522  s :     2.956522
      pz      :     0.951396  p :     3.188979
      px      :     1.115728
      py      :     1.121855
  4 H s       :     0.926017  s :     0.926017
  5 H s       :     0.904863  s :     0.904863
  6 H s       :     0.894237  s :     0.894237
  7 H s       :     0.914345  s :     0.914345


                      *****************************
                      * MAYER POPULATION ANALYSIS *
                      *****************************

  NA   - Mulliken gross atomic population
  ZA   - Total nuclear charge
  QA   - Mulliken gross atomic charge
  VA   - Mayer's total valence
  BVA  - Mayer's bonded valence
  FA   - Mayer's free valence

  ATOM       NA         ZA         QA         VA         BVA        FA
  0 C      5.8178     6.0000     0.1822     3.8615     3.8615     0.0000
  1 O      8.3534     8.0000    -0.3534     2.0752     2.0752    -0.0000
  2 C      6.1570     6.0000    -0.1570     3.9745     3.9745     0.0000
  3 C      6.2588     6.0000    -0.2588     3.9523     3.9523     0.0000
  4 H      0.8665     1.0000     0.1335     0.9822     0.9822     0.0000
  5 H      0.8545     1.0000     0.1455     0.9788     0.9788     0.0000
  6 H      0.8356     1.0000     0.1644     0.9730     0.9730    -0.0000
  7 H      0.8565     1.0000     0.1435     0.9794     0.9794     0.0000

  Mayer bond orders larger than 0.100000
B(  0-C ,  1-O ) :   1.9276 B(  0-C ,  2-C ) :   0.9991 B(  0-C ,  4-H ) :   0.9165 
B(  2-C ,  3-C ) :   1.9690 B(  2-C ,  5-H ) :   0.9564 B(  3-C ,  6-H ) :   0.9597 
B(  3-C ,  7-H ) :   0.9635 

-------
TIMINGS
-------

Total SCF time: 0 days 0 hours 0 min 5 sec 

Total time                  ....       5.016 sec
Sum of individual times     ....       0.550 sec  ( 11.0%)

Fock matrix formation       ....       0.105 sec  (  2.1%)
Diagonalization             ....       0.001 sec  (  0.0%)
Density matrix formation    ....       0.000 sec  (  0.0%)
Population analysis         ....       0.437 sec  (  8.7%)
Initial guess               ....       0.002 sec  (  0.0%)
Orbital Transformation      ....       0.000 sec  (  0.0%)
Orbital Orthonormalization  ....       0.000 sec  (  0.0%)
DIIS solution               ....       0.001 sec  (  0.0%)
SOSCF solution              ....       0.003 sec  (  0.1%)

Maximum memory used throughout the entire SCF-calculation: 225.0 MB
------------------------------------------------------------------------------
                         ORCA CIS CALCULATION
------------------------------------------------------------------------------

Input orbitals are from        ... acrolien.1183.gbw
CI-vector output               ... acrolien.1183.cis
Tamm-Dancoff approximation     ... operative
CIS-Integral strategy          ... AO-integrals
Integral handling              ... AO integral Conventional
Reference state                ... RHF
Generation of triplets         ... off
Follow IRoot                   ... off
Number of operators            ... 1
Orbital ranges used for CIS calculation:
 Operator 0:  Orbitals   4... 14  to  15... 23
XAS localization array:
 Operator 0:  Orbitals  -1... -1

------------------------
DAVIDSON-DIAGONALIZATION
------------------------

Dimension of the eigenvalue problem            ...     99
Number of roots to be determined               ...      1
Maximum size of the expansion space            ...     10
Maximum number of iterations                   ...    100
Convergence tolerance for the residual         ...    2.500e-07
Convergence tolerance for the energies         ...    2.500e-07
Orthogonality tolerance                        ...    1.000e-14
Level Shift                                    ...    0.000e+00
Constructing the preconditioner                ... o.k.
Building the initial guess                     ... o.k.
Number of trial vectors determined             ...     10


                       ****Iteration    0****

   Memory handling for direct AO based CIS:
   Memory per vector needed      ...     1 MB
   Memory needed                 ...     0 MB
   Memory available              ...   512 MB
   Number of vectors per batch   ...   512
   Number of batches             ...     1
   Time for densities:            0.000
   SHARK[4]
   Time for Sigma-Completion:     0.001
   Size of expansion space: 3
   Lowest Energy          :     0.209071297812
   Maximum Energy change  :     0.209071297812 (vector 0)
   Maximum residual norm  :     0.014403921105

                       ****Iteration    1****
   Time for densities:            0.000
   SHARK[4]
   Time for Sigma-Completion:     0.000
   Size of expansion space: 4
   Lowest Energy          :     0.156801627977
   Maximum Energy change  :     0.052269669835 (vector 0)
   Maximum residual norm  :     0.001448188091

                       ****Iteration    2****
   Time for densities:            0.000
   SHARK[4]
   Time for Sigma-Completion:     0.000
   Size of expansion space: 5
   Lowest Energy          :     0.152948352534
   Maximum Energy change  :     0.003853275443 (vector 0)
   Maximum residual norm  :     0.000089695625

                       ****Iteration    3****
   Time for densities:            0.000
   SHARK[4]
   Time for Sigma-Completion:     0.000
   Size of expansion space: 6
   Lowest Energy          :     0.152781230447
   Maximum Energy change  :     0.000167122087 (vector 0)
   Maximum residual norm  :     0.000009704511

                       ****Iteration    4****
   Time for densities:            0.000
   SHARK[4]
   Time for Sigma-Completion:     0.000
   Size of expansion space: 7
   Lowest Energy          :     0.152766244048
   Maximum Energy change  :     0.000014986398 (vector 0)
   Maximum residual norm  :     0.000000990315

                       ****Iteration    5****
   Time for densities:            0.000
   SHARK[4]
   Time for Sigma-Completion:     0.000
   Size of expansion space: 8
   Lowest Energy          :     0.152764789770
   Maximum Energy change  :     0.000001454278 (vector 0)
   Maximum residual norm  :     0.000000070250

      *** CONVERGENCE OF RESIDUAL NORM REACHED ***

Storing the converged CI vectors               ... acrolien.1183.cis1

                 *** DAVIDSON DONE ***

Total time for solving the CIS problem:     2.200sec

-----------------------------
CIS-EXCITED STATES (SINGLETS)
-----------------------------

the weight of the individual excitations are printed if larger than 1.0e-02

STATE  1:  E=   0.152765 au      4.157 eV    33528.0 cm**-1 <S**2> =   0.000000
    10a ->  15a  :     0.015502 (c= -0.12450613)
    12a ->  15a  :     0.010867 (c= -0.10424571)
    13a ->  15a  :     0.233814 (c= -0.48354283)
    13a ->  16a  :     0.047617 (c= -0.21821239)
    14a ->  15a  :     0.553932 (c= -0.74426621)
    14a ->  16a  :     0.101375 (c= -0.31839402)


----------------------
CIS-EXCITATION SPECTRA
----------------------

Center of mass = (  0.5767, -0.9072,  0.0001)
Calculating the Dipole integrals                  ... done
Transforming integrals                            ... done
Calculating the Linear Momentum integrals         ... done
Transforming integrals                            ... done
Calculating angular momentum integrals            ... done
Transforming integrals                            ... done

-----------------------------------------------------------------------------
         ABSORPTION SPECTRUM VIA TRANSITION ELECTRIC DIPOLE MOMENTS
-----------------------------------------------------------------------------
State   Energy    Wavelength  fosc         T2        TX        TY        TZ  
        (cm-1)      (nm)                 (au**2)    (au)      (au)      (au) 
-----------------------------------------------------------------------------
   1   33528.0    298.3   0.000099226   0.00097  -0.03056  -0.00609  -0.00189

-----------------------------------------------------------------------------
         ABSORPTION SPECTRUM VIA TRANSITION VELOCITY DIPOLE MOMENTS
-----------------------------------------------------------------------------
State   Energy    Wavelength   fosc        P2         PX        PY        PZ  
        (cm-1)      (nm)                 (au**2)     (au)      (au)      (au) 
-----------------------------------------------------------------------------
   1   33528.0    298.3   0.000616754   0.00014   0.00165  -0.00033   0.01177

-------------------------------------------------------------------
                             CD SPECTRUM
-------------------------------------------------------------------
State  Energy     Wavelength     R         MX        MY        MZ   
       (cm-1)       (nm)     (1e40*cgs)   (au)      (au)      (au)  
-------------------------------------------------------------------
   1   33528.0    298.3      1.88961  -0.03419  -0.48200  -0.01550

-------------------------------------------------------------------
         CD SPECTRUM VIA TRANSITION VELOCITY DIPOLE MOMENTS        
-------------------------------------------------------------------
State  Energy     Wavelength     R         MX        MY        MZ   
       (cm-1)       (nm)     (1e40*cgs)   (au)      (au)      (au)  
-------------------------------------------------------------------
   1   33528.0    298.3     -0.25327  -0.03419  -0.48200  -0.01550

Total run time:        4.076 sec

           *** ORCA-CIS/TD-DFT FINISHED WITHOUT ERROR ***

Maximum memory used throughout the entire CIS-calculation: 51.7 MB

-----------------------
CIS/TD-DFT TOTAL ENERGY
-----------------------

    E(SCF)  =   -189.387108178 Eh
    DE(CIS) =      0.152764790 Eh (Root  1)
    ----------------------------- ---------
    E(tot)  =   -189.234343389 Eh



-------------------------------------------------------------------------------
                          DFT DISPERSION CORRECTION                            
                                                                               
                              DFTD3 V3.1  Rev 1                                
                          USING Becke-Johnson damping                          
-------------------------------------------------------------------------------
Hartree-Fock is recognized
Active option DFTDOPT                   ...         4   

molecular C6(AA) [au] = 660.787350 


            DFT-D V3
 parameters
 using HF/MINIX parameters
 s6 scaling factor         :     1.0000 
 a1 scaling factor         :     0.4171 
 s8 scaling factor         :     0.8777 
 a2 scaling factor         :     2.9149 
 ad hoc parameters k1-k3   :    16.0000     1.3333    -4.0000 

 Edisp/kcal,au: -16.098975681254  -0.025655348054 
 E6   /kcal   :  -8.921121475 
 E8   /kcal   :  -7.177854206 
 % E8         :  44.585782027 

-------------------------   ----------------
Dispersion correction           -0.025655348
-------------------------   ----------------

------------------   -----------------
gCP+bas correction        -0.055990143
------------------   -----------------
----------------------------   ----------------
Total correction to HF/MINIX       -0.081645491
----------------------------   ----------------


-------------------------   --------------------
FINAL SINGLE POINT ENERGY      -189.315988879989
-------------------------   --------------------


                            ***************************************
                            *     ORCA property calculations      *
                            ***************************************

                                    ---------------------
                                    Active property flags
                                    ---------------------
   (+) Dipole Moment


------------------------------------------------------------------------------
                       ORCA ELECTRIC PROPERTIES CALCULATION
------------------------------------------------------------------------------

Dipole Moment Calculation                       ... on
Quadrupole Moment Calculation                   ... off
Polarizability Calculation                      ... off
GBWName                                         ... acrolien.1183.gbw
Electron density                                ... acrolien.1183.scfp
The origin for moment calculation is the CENTER OF MASS  = ( 0.576652, -0.907239  0.000085)

-------------
DIPOLE MOMENT
-------------
                                X             Y             Z
Electronic contribution:     -2.14265      -1.91044      -0.27402
Nuclear contribution   :      2.35460       2.87347       0.38600
                        -----------------------------------------
Total Dipole Moment    :      0.21195       0.96302       0.11197
                        -----------------------------------------
Magnitude (a.u.)       :      0.99241
Magnitude (Debye)      :      2.52251



--------------------
Rotational spectrum 
--------------------
 
Rotational constants in cm-1:     0.788835     0.208210     0.165028 
Rotational constants in MHz : 23648.689852  6241.988636  4947.414758 

 Dipole components along the rotational axes: 
x,y,z [a.u.] :     0.680580     0.713641     0.111381 
x,y,z [Debye]:     1.729898     1.813931     0.283108 

 

Timings for individual modules:

Sum of individual times         ...       13.578 sec (=   0.226 min)
GTO integral calculation        ...        3.828 sec (=   0.064 min)  28.2 %
SCF iterations                  ...        5.509 sec (=   0.092 min)  40.6 %
CIS module                      ...        4.242 sec (=   0.071 min)  31.2 %
                             ****ORCA TERMINATED NORMALLY****
TOTAL RUN TIME: 0 days 0 hours 0 minutes 16 seconds 118 msec
