
                                 *****************
                                 * O   R   C   A *
                                 *****************

                                            #,                                       
                                            ###                                      
                                            ####                                     
                                            #####                                    
                                            ######                                   
                                           ########,                                 
                                     ,,################,,,,,                         
                               ,,#################################,,                 
                          ,,##########################################,,             
                       ,#########################################, ''#####,          
                    ,#############################################,,   '####,        
                  ,##################################################,,,,####,       
                ,###########''''           ''''###############################       
              ,#####''   ,,,,##########,,,,          '''####'''          '####       
            ,##' ,,,,###########################,,,                        '##       
           ' ,,###''''                  '''############,,,                           
         ,,##''                                '''############,,,,        ,,,,,,###''
      ,#''                                            '''#######################'''  
     '                                                          ''''####''''         
             ,#######,   #######,   ,#######,      ##                                
            ,#'     '#,  ##    ##  ,#'     '#,    #''#        ######   ,####,        
            ##       ##  ##   ,#'  ##            #'  '#       #        #'  '#        
            ##       ##  #######   ##           ,######,      #####,   #    #        
            '#,     ,#'  ##    ##  '#,     ,#' ,#      #,         ##   #,  ,#        
             '#######'   ##     ##  '#######'  #'      '#     #####' # '####'        



                  #######################################################
                  #                        -***-                        #
                  #          Department of theory and spectroscopy      #
                  #    Directorship and core code : Frank Neese         #
                  #        Max Planck Institute fuer Kohlenforschung    #
                  #                Kaiser Wilhelm Platz 1               #
                  #                 D-45470 Muelheim/Ruhr               #
                  #                      Germany                        #
                  #                                                     #
                  #                  All rights reserved                #
                  #                        -***-                        #
                  #######################################################


                         Program Version 5.0.3 -  RELEASE  -


 With contributions from (in alphabetic order):
   Daniel Aravena         : Magnetic Suceptibility
   Michael Atanasov       : Ab Initio Ligand Field Theory (pilot matlab implementation)
   Alexander A. Auer      : GIAO ZORA, VPT2 properties, NMR spectrum
   Ute Becker             : Parallelization
   Giovanni Bistoni       : ED, misc. LED, open-shell LED, HFLD
   Martin Brehm           : Molecular dynamics
   Dmytro Bykov           : SCF Hessian
   Vijay G. Chilkuri      : MRCI spin determinant printing, contributions to CSF-ICE
   Dipayan Datta          : RHF DLPNO-CCSD density
   Achintya Kumar Dutta   : EOM-CC, STEOM-CC
   Dmitry Ganyushin       : Spin-Orbit,Spin-Spin,Magnetic field MRCI
   Miquel Garcia          : C-PCM and meta-GGA Hessian, CC/C-PCM, Gaussian charge scheme
   Yang Guo               : DLPNO-NEVPT2, F12-NEVPT2, CIM, IAO-localization
   Andreas Hansen         : Spin unrestricted coupled pair/coupled cluster methods
   Benjamin Helmich-Paris : MC-RPA, TRAH-SCF, COSX integrals
   Lee Huntington         : MR-EOM, pCC
   Robert Izsak           : Overlap fitted RIJCOSX, COSX-SCS-MP3, EOM
   Marcus Kettner         : VPT2
   Christian Kollmar      : KDIIS, OOCD, Brueckner-CCSD(T), CCSD density, CASPT2, CASPT2-K
   Simone Kossmann        : Meta GGA functionals, TD-DFT gradient, OOMP2, MP2 Hessian
   Martin Krupicka        : Initial AUTO-CI
   Lucas Lang             : DCDCAS
   Marvin Lechner         : AUTO-CI (C++ implementation), FIC-MRCC
   Dagmar Lenk            : GEPOL surface, SMD
   Dimitrios Liakos       : Extrapolation schemes; Compound Job, initial MDCI parallelization
   Dimitrios Manganas     : Further ROCIS development; embedding schemes
   Dimitrios Pantazis     : SARC Basis sets
   Anastasios Papadopoulos: AUTO-CI, single reference methods and gradients
   Taras Petrenko         : DFT Hessian,TD-DFT gradient, ASA, ECA, R-Raman, ABS, FL, XAS/XES, NRVS
   Peter Pinski           : DLPNO-MP2, DLPNO-MP2 Gradient
   Christoph Reimann      : Effective Core Potentials
   Marius Retegan         : Local ZFS, SOC
   Christoph Riplinger    : Optimizer, TS searches, QM/MM, DLPNO-CCSD(T), (RO)-DLPNO pert. Triples
   Tobias Risthaus        : Range-separated hybrids, TD-DFT gradient, RPA, STAB
   Michael Roemelt        : Original ROCIS implementation
   Masaaki Saitow         : Open-shell DLPNO-CCSD energy and density
   Barbara Sandhoefer     : DKH picture change effects
   Avijit Sen             : IP-ROCIS
   Kantharuban Sivalingam : CASSCF convergence, NEVPT2, FIC-MRCI
   Bernardo de Souza      : ESD, SOC TD-DFT
   Georgi Stoychev        : AutoAux, RI-MP2 NMR, DLPNO-MP2 response
   Willem Van den Heuvel  : Paramagnetic NMR
   Boris Wezisla          : Elementary symmetry handling
   Frank Wennmohs         : Technical directorship


 We gratefully acknowledge several colleagues who have allowed us to
 interface, adapt or use parts of their codes:
   Stefan Grimme, W. Hujo, H. Kruse, P. Pracht,  : VdW corrections, initial TS optimization,
                  C. Bannwarth, S. Ehlert          DFT functionals, gCP, sTDA/sTD-DF
   Ed Valeev, F. Pavosevic, A. Kumar             : LibInt (2-el integral package), F12 methods
   Garnet Chan, S. Sharma, J. Yang, R. Olivares  : DMRG
   Ulf Ekstrom                                   : XCFun DFT Library
   Mihaly Kallay                                 : mrcc  (arbitrary order and MRCC methods)
   Jiri Pittner, Ondrej Demel                    : Mk-CCSD
   Frank Weinhold                                : gennbo (NPA and NBO analysis)
   Christopher J. Cramer and Donald G. Truhlar   : smd solvation model
   Lars Goerigk                                  : TD-DFT with DH, B97 family of functionals
   V. Asgeirsson, H. Jonsson                     : NEB implementation
   FAccTs GmbH                                   : IRC, NEB, NEB-TS, DLPNO-Multilevel, CI-OPT
                                                   MM, QMMM, 2- and 3-layer-ONIOM, Crystal-QMMM,
                                                   LR-CPCM, SF, NACMEs, symmetry and pop. for TD-DFT,
                                                   nearIR, NL-DFT gradient (VV10), updates on ESD,
                                                   ML-optimized integration grids
   S Lehtola, MJT Oliveira, MAL Marques          : LibXC Library
   Liviu Ungur et al                             : ANISO software


 Your calculation uses the libint2 library for the computation of 2-el integrals
 For citations please refer to: http://libint.valeyev.net

 Your ORCA version has been built with support for libXC version: 5.1.0
 For citations please refer to: https://tddft.org/programs/libxc/

 This ORCA versions uses:
   CBLAS   interface :  Fast vector & matrix operations
   LAPACKE interface :  Fast linear algebra routines
   SCALAPACK package :  Parallel linear algebra routines
   Shared memory     :  Shared parallel matrices
   BLAS/LAPACK       :  OpenBLAS 0.3.15  USE64BITINT DYNAMIC_ARCH NO_AFFINITY Haswell SINGLE_THREADED
        Core in use  :  Haswell
   Copyright (c) 2011-2014, The OpenBLAS Project


Your calculation utilizes the geometrical counterpoise correction gCP
Please cite in your paper:
H.Kruse, S. Grimme J.Chem.Phys., 136, (2012), 154101 
   

Your calculation utilizes the atom-pairwise dispersion correction
with the Becke-Johnson damping scheme (D3BJ)
Cite in your paper:
S.Grimme, S.Ehrlich, L.Goerigk, J Comput Chem, (2011), 32, 1456–1465 
S.Grimme, J.Antony, S.Ehrlich and H.Krieg, J.Chem.Phys., 132, (2010), 154104 
   

================================================================================

----- Orbital basis set information -----
Your calculation utilizes the basis: MINIX,
   a combination of small basis sets by S. Grimme (see manual for definitions).

================================================================================
                                        WARNINGS
                       Please study these warnings very carefully!
================================================================================

INFO   : Checking CIS options ...

INFO   : the flag for use of the SHARK integral package has been found!

================================================================================
                                       INPUT FILE
================================================================================
NAME = acrolien.833.com
|  1> ! HF-3c
|  2> !TightSCF
|  3> %scf
|  4>  ConvForced true
|  5>  convergence tight
|  6>  MaxIter 500
|  7> end
|  8>  
|  9> %tddft 
| 10>  nroots 1
| 11> end
| 12> 
| 13> # 	20223
| 14> * xyz 0 1
| 15> 		C   -0.535065  -0.402015   0.021079
| 16> 		O   -0.612260  -1.691579  -0.007539
| 17> 		C    0.635027   0.426097  -0.023157
| 18> 		C    1.827615  -0.100341   0.021114
| 19> 		H   -1.444590   0.278239  -0.011317
| 20> 		H    0.411714   1.390764   0.007288
| 21> 		H    1.991903  -1.133314  -0.062427
| 22> 		H    2.752504   0.494033  -0.041818
| 23> *
| 24> 
| 25>                          ****END OF INPUT****
================================================================================

                       ****************************
                       * Single Point Calculation *
                       ****************************

---------------------------------
CARTESIAN COORDINATES (ANGSTROEM)
---------------------------------
  C     -0.535065   -0.402015    0.021079
  O     -0.612260   -1.691579   -0.007539
  C      0.635027    0.426097   -0.023157
  C      1.827615   -0.100341    0.021114
  H     -1.444590    0.278239   -0.011317
  H      0.411714    1.390764    0.007288
  H      1.991903   -1.133314   -0.062427
  H      2.752504    0.494033   -0.041818

----------------------------
CARTESIAN COORDINATES (A.U.)
----------------------------
  NO LB      ZA    FRAG     MASS         X           Y           Z
   0 C     6.0000    0    12.011   -1.011126   -0.759698    0.039834
   1 O     8.0000    0    15.999   -1.157004   -3.196621   -0.014247
   2 C     6.0000    0    12.011    1.200027    0.805207   -0.043760
   3 C     6.0000    0    12.011    3.453692   -0.189617    0.039900
   4 H     1.0000    0     1.008   -2.729879    0.525796   -0.021386
   5 H     1.0000    0     1.008    0.778027    2.628163    0.013772
   6 H     1.0000    0     1.008    3.764151   -2.141653   -0.117970
   7 H     1.0000    0     1.008    5.201479    0.933587   -0.079025

--------------------------------
INTERNAL COORDINATES (ANGSTROEM)
--------------------------------
 C      0   0   0     0.000000000000     0.00000000     0.00000000
 O      1   0   0     1.292189370040     0.00000000     0.00000000
 C      1   2   0     1.434169305453   128.63076936     0.00000000
 C      3   1   2     1.304363073315   120.78797075   353.64032668
 H      1   2   3     1.136235332560   123.30003441   173.93122075
 H      3   1   2     0.990645251784   112.17344879   179.58431459
 H      4   3   1     1.049286836072   122.53227179     9.88944851
 H      4   3   1     1.101208677237   123.23899203   178.02000362

---------------------------
INTERNAL COORDINATES (A.U.)
---------------------------
 C      0   0   0     0.000000000000     0.00000000     0.00000000
 O      1   0   0     2.441884022540     0.00000000     0.00000000
 C      1   2   0     2.710187216983   128.63076936     0.00000000
 C      3   1   2     2.464888987766   120.78797075   353.64032668
 H      1   2   3     2.147173602223   123.30003441   173.93122075
 H      3   1   2     1.872048221742   112.17344879   179.58431459
 H      4   3   1     1.982864756105   122.53227179     9.88944851
 H      4   3   1     2.080982816275   123.23899203   178.02000362

---------------------
BASIS SET INFORMATION
---------------------
There are 3 groups of distinct atoms

 Group   1 Type C   : 6s3p contracted to 2s1p pattern {33/3}
 Group   2 Type O   : 6s3p contracted to 2s1p pattern {33/3}
 Group   3 Type H   : 3s contracted to 1s pattern {3}

Atom   0C    basis set group =>   1
Atom   1O    basis set group =>   2
Atom   2C    basis set group =>   1
Atom   3C    basis set group =>   1
Atom   4H    basis set group =>   3
Atom   5H    basis set group =>   3
Atom   6H    basis set group =>   3
Atom   7H    basis set group =>   3
------------------------------------------------------------------------------
                           ORCA GTO INTEGRAL CALCULATION
------------------------------------------------------------------------------
------------------------------------------------------------------------------
                   ___                                                        
                  /   \      - P O W E R E D   B Y -                         
                 /     \                                                     
                 |  |  |   _    _      __       _____    __    __             
                 |  |  |  | |  | |    /  \     |  _  \  |  |  /  |          
                  \  \/   | |  | |   /    \    | | | |  |  | /  /          
                 / \  \   | |__| |  /  /\  \   | |_| |  |  |/  /          
                |  |  |   |  __  | /  /__\  \  |    /   |      \           
                |  |  |   | |  | | |   __   |  |    \   |  |\   \          
                \     /   | |  | | |  |  |  |  | |\  \  |  | \   \       
                 \___/    |_|  |_| |__|  |__|  |_| \__\ |__|  \__/        
                                                                              
                      - O R C A' S   B I G   F R I E N D -                    
                                      &                                       
                       - I N T E G R A L  F E E D E R -                       
                                                                              
 v1 FN, 2020, v2 2021                                                         
------------------------------------------------------------------------------


Reading SHARK input file acrolien.833.SHARKINP.tmp ... ok
----------------------
SHARK INTEGRAL PACKAGE
----------------------

Number of atoms                             ...      8
Number of basis functions                   ...     24
Number of shells                            ...     16
Maximum angular momentum                    ...      1
Integral batch strategy                     ... SHARK/LIBINT Hybrid
RI-J (if used) integral strategy            ... SPLIT-RIJ (Revised 2003 algorithm where possible)
Printlevel                                  ...      1
Contraction scheme used                     ... SEGMENTED contraction
Coulomb Range Separation                    ... NOT USED
Exchange Range Separation                   ... NOT USED
Finite Nucleus Model                        ... NOT USED
Auxiliary Coulomb fitting basis             ... NOT available
Auxiliary J/K fitting basis                 ... NOT available
Auxiliary Correlation fitting basis         ... NOT available
Auxiliary 'external' fitting basis          ... NOT available
Integral threshold                          ...     2.500000e-11
Primitive cut-off                           ...     2.500000e-12
Primitive pair pre-selection threshold      ...     2.500000e-12

Calculating pre-screening integrals         ... done (  0.0 sec) Dimension = 16
Organizing shell pair data                  ... done (  0.1 sec)
Shell pair information
Total number of shell pairs                 ...       136
Shell pairs after pre-screening             ...       133
Total number of primitive shell pairs       ...      1224
Primitive shell pairs kept                  ...      1003
          la=0 lb=0:     75 shell pairs
          la=1 lb=0:     48 shell pairs
          la=1 lb=1:     10 shell pairs

Calculating one electron integrals          ... done (  0.0 sec)
Calculating Nuclear repulsion               ... done (  0.0 sec) ENN=    104.399003943941 Eh
Calculating 4-index integrals               ... 
    -> SHARK/Ints2Disk: Thresh =     2.500000e-11 TCut=    2.500000e-12 
    -> calling libint FockFlag=2 Lmax_loc=1
    ->Total LIBINT loop time =    0.000 sec
    -> L=0 0 0 0:     0.003 sec done=      2825 (=100.0%) skipped=         0 
    -> L=1 0 0 0:     0.007 sec done=      3594 (=100.0%) skipped=         0 
    -> L=1 0 1 0:     0.004 sec done=      1176 (=100.0%) skipped=         0 
    -> L=1 1 0 0:     0.003 sec done=       750 (=100.0%) skipped=         0 
    -> L=1 1 1 0:     0.004 sec done=       480 (=100.0%) skipped=         0 
    -> L=1 1 1 1:     0.001 sec done=        55 (=100.0%) skipped=         0 
    ->Total SHARK integral loop time =    0.022 sec
    -> Total Integral generation matrix time =    0.028 sec
    -> Number of small integrals   =       754
    -> Number of medium integrals  =      3108
    -> Number of large integrals   =     39845
    -> Number of MB stored         =         0 MB


SHARK setup successfully completed in   1.0 seconds

Maximum memory used throughout the entire GTOINT-calculation: 29.5 MB
-------------------------------------------------------------------------------
                                 ORCA SCF
-------------------------------------------------------------------------------

------------
SCF SETTINGS
------------
Hamiltonian:
 Ab initio Hamiltonian  Method          .... Hartree-Fock(GTOs)


General Settings:
 Integral files         IntName         .... acrolien.833
 Hartree-Fock type      HFTyp           .... RHF
 Total Charge           Charge          ....    0
 Multiplicity           Mult            ....    1
 Number of Electrons    NEL             ....   30
 Basis Dimension        Dim             ....   24
 Nuclear Repulsion      ENuc            ....    104.3990039439 Eh

Convergence Acceleration:
 DIIS                   CNVDIIS         .... on
   Start iteration      DIISMaxIt       ....    12
   Startup error        DIISStart       ....  0.200000
   # of expansion vecs  DIISMaxEq       ....     5
   Bias factor          DIISBfac        ....   1.050
   Max. coefficient     DIISMaxC        ....  10.000
 Trust-Rad. Augm. Hess. CNVTRAH         .... auto
   Auto Start mean grad. ratio tolernc. ....  1.125000
   Auto Start start iteration           ....    20
   Auto Start num. interpolation iter.  ....    10
   Max. Number of Micro iterations      ....    16
   Max. Number of Macro iterations      .... Maxiter - #DIIS iter
   Number of Davidson start vectors     ....     2
   Converg. threshold I  (grad. norm)   ....   1.000e-05
   Converg. threshold II (energy diff.) ....   1.000e-08
   Grad. Scal. Fac. for Micro threshold ....   0.100
   Minimum threshold for Micro iter.    ....   0.010
   NR start threshold (gradient norm)   ....   0.001
   Initial trust radius                 ....   0.400
   Minimum AH scaling param. (alpha)    ....   1.000
   Maximum AH scaling param. (alpha)    .... 1000.000
   Orbital update algorithm             .... Taylor
   White noise on init. David. guess    .... on
   Maximum white noise                  ....   0.010
   Quad. conv. algorithm                .... NR
 SOSCF                  CNVSOSCF        .... on
   Start iteration      SOSCFMaxIt      ....   150
   Startup grad/error   SOSCFStart      ....  0.003300
 Level Shifting         CNVShift        .... on
   Level shift para.    LevelShift      ....    0.2500
   Turn off err/grad.   ShiftErr        ....    0.0010
 Zerner damping         CNVZerner       .... off
 Static damping         CNVDamp         .... on
   Fraction old density DampFac         ....    0.7000
   Max. Damping (<1)    DampMax         ....    0.9800
   Min. Damping (>=0)   DampMin         ....    0.0000
   Turn off err/grad.   DampErr         ....    0.1000
 Fernandez-Rico         CNVRico         .... off

SCF Procedure:
 Maximum # iterations   MaxIter         ....   500
 SCF integral mode      SCFMode         .... Conventional
 Integral Threshold     Thresh          ....  2.500e-11 Eh
 Primitive CutOff       TCut            ....  2.500e-12 Eh
 Integral Buffer length BufferLength    .... 1048576
 Integral index format  IndFormat       ....     0
 Integral value format  ValFormat       ....     0
 Integral Storage       Thresh          ....  2.500e-11 Eh

Convergence Tolerance:
 Convergence Check Mode ConvCheckMode   .... Total+1el-Energy
 Convergence forced     ConvForced      .... 1
 Energy Change          TolE            ....  1.000e-08 Eh
 1-El. energy change                    ....  1.000e-05 Eh
 Orbital Gradient       TolG            ....  1.000e-05
 Orbital Rotation angle TolX            ....  1.000e-05
 DIIS Error             TolErr          ....  5.000e-07


Diagonalization of the overlap matrix:
Smallest eigenvalue                        ... 1.710e-01
Time for diagonalization                   ...    0.000 sec
Threshold for overlap eigenvalues          ... 1.000e-08
Number of eigenvalues below threshold      ... 0
Time for construction of square roots      ...    0.377 sec
Total time needed                          ...    0.377 sec

--------------------------------
INITIAL GUESS: MINIMAL BASIS EHT
--------------------------------
The minimal basis has 24 functions
EHT matrix was diagonalized
Basis set overlap was calculated now projecting the orbitals
Using GuessMode=FMatrix for the initial guess
C*T matrix was formed
Effective Fockian was calculated
Effective Fockian was diagonalized
Initial density was built
                      ------------------
                      INITIAL GUESS DONE
                      ------------------

 InCore treatment chosen:
   Memory dedicated               ...    1024 MB
   Memory needed                  ...      0 MB
   Number of tiny    integrals    ...     754
   Number of small   integrals    ...    3108
   Number of regular integrals    ...   39845

--------------
SCF ITERATIONS
--------------
ITER       Energy         Delta-E        Max-DP      RMS-DP      [F,P]     Damp
  0   -188.9705180298   0.000000000000 0.18454955  0.01676655  0.3548006 0.7000
  1   -189.1164801496  -0.145962119780 0.15541779  0.01332127  0.2332397 0.7000
                               ***Turning on DIIS***
  2   -189.2070568889  -0.090576739300 0.09499635  0.00831467  0.1451062 0.7000
  3   -189.2968118212  -0.089754932321 0.03684763  0.00451485  0.1040311 0.7000
  4   -189.3304213083  -0.033609487052 0.08640853  0.01093410  0.0736289 0.0000
  5   -189.4060962251  -0.075674916832 0.01857368  0.00156712  0.0135695 0.0000
  6   -189.4049841430   0.001112082177 0.00412952  0.00049341  0.0041025 0.0000
                      *** Initiating the SOSCF procedure ***
                           *** Shutting down DIIS ***
                      *** Re-Reading the Fockian *** 
                      *** Removing any level shift *** 
ITER      Energy       Delta-E        Grad      Rot      Max-DP    RMS-DP
  7   -189.40434377   0.0006403707  0.001982  0.001982  0.004641  0.000412
  8   -189.40525652  -0.0009127504  0.000674  0.001066  0.001542  0.000130
  9   -189.40525947  -0.0000029521  0.000209  0.000887  0.001922  0.000166
 10   -189.40526060  -0.0000011293  0.000144  0.000172  0.000356  0.000028
 11   -189.40526069  -0.0000000908  0.000044  0.000061  0.000102  0.000009
 12   -189.40526071  -0.0000000135  0.000012  0.000043  0.000061  0.000007
                 **** Energy Check signals convergence ****
              ***Rediagonalizing the Fockian in SOSCF/NRSCF***

               *****************************************************
               *                     SUCCESS                       *
               *           SCF CONVERGED AFTER  13 CYCLES          *
               *****************************************************


----------------
TOTAL SCF ENERGY
----------------

Total Energy       :         -189.40526071 Eh           -5153.97917 eV

Components:
Nuclear Repulsion  :          104.39900394 Eh            2840.84132 eV
Electronic Energy  :         -293.80426465 Eh           -7994.82049 eV
One Electron Energy:         -463.73139016 Eh          -12618.77265 eV
Two Electron Energy:          169.92712551 Eh            4623.95216 eV

Virial components:
Potential Energy   :         -378.58248767 Eh          -10301.75322 eV
Kinetic Energy     :          189.17722696 Eh            5147.77405 eV
Virial Ratio       :            2.00120540


---------------
SCF CONVERGENCE
---------------

  Last Energy change         ...   -2.3423e-09  Tolerance :   1.0000e-08
  Last MAX-Density change    ...    7.5312e-06  Tolerance :   1.0000e-07
  Last RMS-Density change    ...    9.4081e-07  Tolerance :   5.0000e-09
  Last Orbital Gradient      ...    2.9702e-06  Tolerance :   1.0000e-05
  Last Orbital Rotation      ...    3.4191e-06  Tolerance :   1.0000e-05

             **** THE GBW FILE WAS UPDATED (acrolien.833.gbw) ****
             **** DENSITY acrolien.833.scfp WAS UPDATED ****
             **** ENERGY FILE WAS UPDATED (acrolien.833.en.tmp) ****
             **** THE GBW FILE WAS UPDATED (acrolien.833.gbw) ****
             **** DENSITY acrolien.833.scfp WAS UPDATED ****
----------------
ORBITAL ENERGIES
----------------

  NO   OCC          E(Eh)            E(eV) 
   0   2.0000     -20.342334      -553.5431 
   1   2.0000     -11.276985      -306.8624 
   2   2.0000     -11.209279      -305.0200 
   3   2.0000     -11.202391      -304.8326 
   4   2.0000      -1.340192       -36.4685 
   5   2.0000      -1.108850       -30.1733 
   6   2.0000      -0.917571       -24.9684 
   7   2.0000      -0.759997       -20.6806 
   8   2.0000      -0.705055       -19.1855 
   9   2.0000      -0.628534       -17.1033 
  10   2.0000      -0.577012       -15.7013 
  11   2.0000      -0.539631       -14.6841 
  12   2.0000      -0.521183       -14.1821 
  13   2.0000      -0.413626       -11.2553 
  14   2.0000      -0.395927       -10.7737 
  15   0.0000       0.110839         3.0161 
  16   0.0000       0.306399         8.3375 
  17   0.0000       0.552176        15.0255 
  18   0.0000       0.641696        17.4614 
  19   0.0000       0.653248        17.7758 
  20   0.0000       0.700313        19.0565 
  21   0.0000       0.818129        22.2624 
  22   0.0000       0.955205        25.9925 
  23   0.0000       1.070180        29.1211 

                    ********************************
                    * MULLIKEN POPULATION ANALYSIS *
                    ********************************

-----------------------
MULLIKEN ATOMIC CHARGES
-----------------------
   0 C :    0.154501
   1 O :   -0.342553
   2 C :   -0.206961
   3 C :   -0.198935
   4 H :    0.132423
   5 H :    0.147058
   6 H :    0.162886
   7 H :    0.151580
Sum of atomic charges:   -0.0000000

--------------------------------
MULLIKEN REDUCED ORBITAL CHARGES
--------------------------------
  0 C s       :     3.084120  s :     3.084120
      pz      :     0.850211  p :     2.761379
      px      :     1.050819
      py      :     0.860349
  1 O s       :     3.860469  s :     3.860469
      pz      :     1.201087  p :     4.482084
      px      :     1.933320
      py      :     1.347676
  2 C s       :     3.052348  s :     3.052348
      pz      :     1.063433  p :     3.154613
      px      :     1.005248
      py      :     1.085932
  3 C s       :     3.131138  s :     3.131138
      pz      :     0.882511  p :     3.067797
      px      :     1.068893
      py      :     1.116392
  4 H s       :     0.867577  s :     0.867577
  5 H s       :     0.852942  s :     0.852942
  6 H s       :     0.837114  s :     0.837114
  7 H s       :     0.848420  s :     0.848420


                     *******************************
                     * LOEWDIN POPULATION ANALYSIS *
                     *******************************

----------------------
LOEWDIN ATOMIC CHARGES
----------------------
   0 C :    0.150451
   1 O :   -0.272854
   2 C :   -0.148895
   3 C :   -0.093000
   4 H :    0.074468
   5 H :    0.086397
   6 H :    0.103517
   7 H :    0.099917

-------------------------------
LOEWDIN REDUCED ORBITAL CHARGES
-------------------------------
  0 C s       :     3.000082  s :     3.000082
      pz      :     0.854316  p :     2.849467
      px      :     1.072242
      py      :     0.922910
  1 O s       :     3.755135  s :     3.755135
      pz      :     1.199407  p :     4.517720
      px      :     1.934444
      py      :     1.383869
  2 C s       :     2.933121  s :     2.933121
      pz      :     1.056642  p :     3.215774
      px      :     1.066177
      py      :     1.092956
  3 C s       :     2.993429  s :     2.993429
      pz      :     0.887120  p :     3.099571
      px      :     1.098586
      py      :     1.113865
  4 H s       :     0.925532  s :     0.925532
  5 H s       :     0.913603  s :     0.913603
  6 H s       :     0.896483  s :     0.896483
  7 H s       :     0.900083  s :     0.900083


                      *****************************
                      * MAYER POPULATION ANALYSIS *
                      *****************************

  NA   - Mulliken gross atomic population
  ZA   - Total nuclear charge
  QA   - Mulliken gross atomic charge
  VA   - Mayer's total valence
  BVA  - Mayer's bonded valence
  FA   - Mayer's free valence

  ATOM       NA         ZA         QA         VA         BVA        FA
  0 C      5.8455     6.0000     0.1545     3.8951     3.8951    -0.0000
  1 O      8.3426     8.0000    -0.3426     2.0446     2.0446    -0.0000
  2 C      6.2070     6.0000    -0.2070     3.9743     3.9743    -0.0000
  3 C      6.1989     6.0000    -0.1989     3.9355     3.9355    -0.0000
  4 H      0.8676     1.0000     0.1324     0.9825     0.9825    -0.0000
  5 H      0.8529     1.0000     0.1471     0.9784     0.9784    -0.0000
  6 H      0.8371     1.0000     0.1629     0.9735     0.9735    -0.0000
  7 H      0.8484     1.0000     0.1516     0.9770     0.9770    -0.0000

  Mayer bond orders larger than 0.100000
B(  0-C ,  1-O ) :   1.8841 B(  0-C ,  2-C ) :   1.0601 B(  0-C ,  4-H ) :   0.9300 
B(  2-C ,  3-C ) :   1.9203 B(  2-C ,  5-H ) :   0.9589 B(  3-C ,  6-H ) :   0.9590 
B(  3-C ,  7-H ) :   0.9622 

-------
TIMINGS
-------

Total SCF time: 0 days 0 hours 0 min 2 sec 

Total time                  ....       2.394 sec
Sum of individual times     ....       0.117 sec  (  4.9%)

Fock matrix formation       ....       0.106 sec  (  4.4%)
Diagonalization             ....       0.001 sec  (  0.1%)
Density matrix formation    ....       0.000 sec  (  0.0%)
Population analysis         ....       0.003 sec  (  0.1%)
Initial guess               ....       0.002 sec  (  0.1%)
Orbital Transformation      ....       0.000 sec  (  0.0%)
Orbital Orthonormalization  ....       0.000 sec  (  0.0%)
DIIS solution               ....       0.002 sec  (  0.1%)
SOSCF solution              ....       0.003 sec  (  0.1%)

Maximum memory used throughout the entire SCF-calculation: 225.0 MB
------------------------------------------------------------------------------
                         ORCA CIS CALCULATION
------------------------------------------------------------------------------

Input orbitals are from        ... acrolien.833.gbw
CI-vector output               ... acrolien.833.cis
Tamm-Dancoff approximation     ... operative
CIS-Integral strategy          ... AO-integrals
Integral handling              ... AO integral Conventional
Reference state                ... RHF
Generation of triplets         ... off
Follow IRoot                   ... off
Number of operators            ... 1
Orbital ranges used for CIS calculation:
 Operator 0:  Orbitals   4... 14  to  15... 23
XAS localization array:
 Operator 0:  Orbitals  -1... -1

------------------------
DAVIDSON-DIAGONALIZATION
------------------------

Dimension of the eigenvalue problem            ...     99
Number of roots to be determined               ...      1
Maximum size of the expansion space            ...     10
Maximum number of iterations                   ...    100
Convergence tolerance for the residual         ...    2.500e-07
Convergence tolerance for the energies         ...    2.500e-07
Orthogonality tolerance                        ...    1.000e-14
Level Shift                                    ...    0.000e+00
Constructing the preconditioner                ... o.k.
Building the initial guess                     ... o.k.
Number of trial vectors determined             ...     10


                       ****Iteration    0****

   Memory handling for direct AO based CIS:
   Memory per vector needed      ...     1 MB
   Memory needed                 ...     0 MB
   Memory available              ...   512 MB
   Number of vectors per batch   ...   512
   Number of batches             ...     1
   Time for densities:            0.001
   SHARK[4]
   Time for Sigma-Completion:     0.000
   Size of expansion space: 3
   Lowest Energy          :     0.180436621619
   Maximum Energy change  :     0.180436621619 (vector 0)
   Maximum residual norm  :     0.014591364861

                       ****Iteration    1****
   Time for densities:            0.000
   SHARK[4]
   Time for Sigma-Completion:     0.000
   Size of expansion space: 4
   Lowest Energy          :     0.131383804608
   Maximum Energy change  :     0.049052817011 (vector 0)
   Maximum residual norm  :     0.000936396103

                       ****Iteration    2****
   Time for densities:            0.000
   SHARK[4]
   Time for Sigma-Completion:     0.000
   Size of expansion space: 5
   Lowest Energy          :     0.128621291120
   Maximum Energy change  :     0.002762513488 (vector 0)
   Maximum residual norm  :     0.000073040777

                       ****Iteration    3****
   Time for densities:            0.000
   SHARK[4]
   Time for Sigma-Completion:     0.000
   Size of expansion space: 6
   Lowest Energy          :     0.128496543445
   Maximum Energy change  :     0.000124747675 (vector 0)
   Maximum residual norm  :     0.000004632258

                       ****Iteration    4****
   Time for densities:            0.000
   SHARK[4]
   Time for Sigma-Completion:     0.000
   Size of expansion space: 7
   Lowest Energy          :     0.128489430452
   Maximum Energy change  :     0.000007112993 (vector 0)
   Maximum residual norm  :     0.000000192362

      *** CONVERGENCE OF RESIDUAL NORM REACHED ***

Storing the converged CI vectors               ... acrolien.833.cis1

                 *** DAVIDSON DONE ***

Total time for solving the CIS problem:     1.689sec

-----------------------------
CIS-EXCITED STATES (SINGLETS)
-----------------------------

the weight of the individual excitations are printed if larger than 1.0e-02

STATE  1:  E=   0.128489 au      3.496 eV    28200.2 cm**-1 <S**2> =   0.000000
    10a ->  15a  :     0.016931 (c= -0.13012098)
    13a ->  15a  :     0.828110 (c=  0.91000547)
    13a ->  16a  :     0.126566 (c= -0.35576099)


----------------------
CIS-EXCITATION SPECTRA
----------------------

Center of mass = (  0.5763, -0.9081, -0.0000)
Calculating the Dipole integrals                  ... done
Transforming integrals                            ... done
Calculating the Linear Momentum integrals         ... done
Transforming integrals                            ... done
Calculating angular momentum integrals            ... done
Transforming integrals                            ... done

-----------------------------------------------------------------------------
         ABSORPTION SPECTRUM VIA TRANSITION ELECTRIC DIPOLE MOMENTS
-----------------------------------------------------------------------------
State   Energy    Wavelength  fosc         T2        TX        TY        TZ  
        (cm-1)      (nm)                 (au**2)    (au)      (au)      (au) 
-----------------------------------------------------------------------------
   1   28200.2    354.6   0.000033487   0.00039  -0.01737   0.00190  -0.00924

-----------------------------------------------------------------------------
         ABSORPTION SPECTRUM VIA TRANSITION VELOCITY DIPOLE MOMENTS
-----------------------------------------------------------------------------
State   Energy    Wavelength   fosc        P2         PX        PY        PZ  
        (cm-1)      (nm)                 (au**2)     (au)      (au)      (au) 
-----------------------------------------------------------------------------
   1   28200.2    354.6   0.000716727   0.00014   0.00160   0.00085   0.01161

-------------------------------------------------------------------
                             CD SPECTRUM
-------------------------------------------------------------------
State  Energy     Wavelength     R         MX        MY        MZ   
       (cm-1)       (nm)     (1e40*cgs)   (au)      (au)      (au)  
-------------------------------------------------------------------
   1   28200.2    354.6      0.06297  -0.06023  -0.47975   0.00002

-------------------------------------------------------------------
         CD SPECTRUM VIA TRANSITION VELOCITY DIPOLE MOMENTS        
-------------------------------------------------------------------
State  Energy     Wavelength     R         MX        MY        MZ   
       (cm-1)       (nm)     (1e40*cgs)   (au)      (au)      (au)  
-------------------------------------------------------------------
   1   28200.2    354.6     -1.85515  -0.06023  -0.47975   0.00002

Total run time:        3.356 sec

           *** ORCA-CIS/TD-DFT FINISHED WITHOUT ERROR ***

Maximum memory used throughout the entire CIS-calculation: 51.7 MB

-----------------------
CIS/TD-DFT TOTAL ENERGY
-----------------------

    E(SCF)  =   -189.405260711 Eh
    DE(CIS) =      0.128489430 Eh (Root  1)
    ----------------------------- ---------
    E(tot)  =   -189.276771280 Eh



-------------------------------------------------------------------------------
                          DFT DISPERSION CORRECTION                            
                                                                               
                              DFTD3 V3.1  Rev 1                                
                          USING Becke-Johnson damping                          
-------------------------------------------------------------------------------
Hartree-Fock is recognized
Active option DFTDOPT                   ...         4   

molecular C6(AA) [au] = 660.242718 


            DFT-D V3
 parameters
 using HF/MINIX parameters
 s6 scaling factor         :     1.0000 
 a1 scaling factor         :     0.4171 
 s8 scaling factor         :     0.8777 
 a2 scaling factor         :     2.9149 
 ad hoc parameters k1-k3   :    16.0000     1.3333    -4.0000 

 Edisp/kcal,au: -16.368470512697  -0.026084815359 
 E6   /kcal   :  -9.063524049 
 E8   /kcal   :  -7.304946464 
 % E8         :  44.628155442 

-------------------------   ----------------
Dispersion correction           -0.026084815
-------------------------   ----------------

------------------   -----------------
gCP+bas correction        -0.037503928
------------------   -----------------
----------------------------   ----------------
Total correction to HF/MINIX       -0.063588744
----------------------------   ----------------


-------------------------   --------------------
FINAL SINGLE POINT ENERGY      -189.340360023975
-------------------------   --------------------


                            ***************************************
                            *     ORCA property calculations      *
                            ***************************************

                                    ---------------------
                                    Active property flags
                                    ---------------------
   (+) Dipole Moment


------------------------------------------------------------------------------
                       ORCA ELECTRIC PROPERTIES CALCULATION
------------------------------------------------------------------------------

Dipole Moment Calculation                       ... on
Quadrupole Moment Calculation                   ... off
Polarizability Calculation                      ... off
GBWName                                         ... acrolien.833.gbw
Electron density                                ... acrolien.833.scfp
The origin for moment calculation is the CENTER OF MASS  = ( 0.576309, -0.908108 -0.000038)

-------------
DIPOLE MOMENT
-------------
                                X             Y             Z
Electronic contribution:     -1.86261      -1.76064       0.09452
Nuclear contribution   :      2.32405       2.75151      -0.10162
                        -----------------------------------------
Total Dipole Moment    :      0.46143       0.99087      -0.00710
                        -----------------------------------------
Magnitude (a.u.)       :      1.09307
Magnitude (Debye)      :      2.77836



--------------------
Rotational spectrum 
--------------------
 
Rotational constants in cm-1:     0.765558     0.206166     0.162500 
Rotational constants in MHz : 22950.861823  6180.703339  4871.617837 

 Dipole components along the rotational axes: 
x,y,z [a.u.] :     0.936286    -0.564016    -0.007501 
x,y,z [Debye]:     2.379851    -1.433616    -0.019065 

 

Timings for individual modules:

Sum of individual times         ...        9.163 sec (=   0.153 min)
GTO integral calculation        ...        1.223 sec (=   0.020 min)  13.3 %
SCF iterations                  ...        4.201 sec (=   0.070 min)  45.8 %
CIS module                      ...        3.739 sec (=   0.062 min)  40.8 %
                             ****ORCA TERMINATED NORMALLY****
TOTAL RUN TIME: 0 days 0 hours 0 minutes 12 seconds 141 msec
