
                                 *****************
                                 * O   R   C   A *
                                 *****************

                                            #,                                       
                                            ###                                      
                                            ####                                     
                                            #####                                    
                                            ######                                   
                                           ########,                                 
                                     ,,################,,,,,                         
                               ,,#################################,,                 
                          ,,##########################################,,             
                       ,#########################################, ''#####,          
                    ,#############################################,,   '####,        
                  ,##################################################,,,,####,       
                ,###########''''           ''''###############################       
              ,#####''   ,,,,##########,,,,          '''####'''          '####       
            ,##' ,,,,###########################,,,                        '##       
           ' ,,###''''                  '''############,,,                           
         ,,##''                                '''############,,,,        ,,,,,,###''
      ,#''                                            '''#######################'''  
     '                                                          ''''####''''         
             ,#######,   #######,   ,#######,      ##                                
            ,#'     '#,  ##    ##  ,#'     '#,    #''#        ######   ,####,        
            ##       ##  ##   ,#'  ##            #'  '#       #        #'  '#        
            ##       ##  #######   ##           ,######,      #####,   #    #        
            '#,     ,#'  ##    ##  '#,     ,#' ,#      #,         ##   #,  ,#        
             '#######'   ##     ##  '#######'  #'      '#     #####' # '####'        



                  #######################################################
                  #                        -***-                        #
                  #          Department of theory and spectroscopy      #
                  #    Directorship and core code : Frank Neese         #
                  #        Max Planck Institute fuer Kohlenforschung    #
                  #                Kaiser Wilhelm Platz 1               #
                  #                 D-45470 Muelheim/Ruhr               #
                  #                      Germany                        #
                  #                                                     #
                  #                  All rights reserved                #
                  #                        -***-                        #
                  #######################################################


                         Program Version 5.0.3 -  RELEASE  -


 With contributions from (in alphabetic order):
   Daniel Aravena         : Magnetic Suceptibility
   Michael Atanasov       : Ab Initio Ligand Field Theory (pilot matlab implementation)
   Alexander A. Auer      : GIAO ZORA, VPT2 properties, NMR spectrum
   Ute Becker             : Parallelization
   Giovanni Bistoni       : ED, misc. LED, open-shell LED, HFLD
   Martin Brehm           : Molecular dynamics
   Dmytro Bykov           : SCF Hessian
   Vijay G. Chilkuri      : MRCI spin determinant printing, contributions to CSF-ICE
   Dipayan Datta          : RHF DLPNO-CCSD density
   Achintya Kumar Dutta   : EOM-CC, STEOM-CC
   Dmitry Ganyushin       : Spin-Orbit,Spin-Spin,Magnetic field MRCI
   Miquel Garcia          : C-PCM and meta-GGA Hessian, CC/C-PCM, Gaussian charge scheme
   Yang Guo               : DLPNO-NEVPT2, F12-NEVPT2, CIM, IAO-localization
   Andreas Hansen         : Spin unrestricted coupled pair/coupled cluster methods
   Benjamin Helmich-Paris : MC-RPA, TRAH-SCF, COSX integrals
   Lee Huntington         : MR-EOM, pCC
   Robert Izsak           : Overlap fitted RIJCOSX, COSX-SCS-MP3, EOM
   Marcus Kettner         : VPT2
   Christian Kollmar      : KDIIS, OOCD, Brueckner-CCSD(T), CCSD density, CASPT2, CASPT2-K
   Simone Kossmann        : Meta GGA functionals, TD-DFT gradient, OOMP2, MP2 Hessian
   Martin Krupicka        : Initial AUTO-CI
   Lucas Lang             : DCDCAS
   Marvin Lechner         : AUTO-CI (C++ implementation), FIC-MRCC
   Dagmar Lenk            : GEPOL surface, SMD
   Dimitrios Liakos       : Extrapolation schemes; Compound Job, initial MDCI parallelization
   Dimitrios Manganas     : Further ROCIS development; embedding schemes
   Dimitrios Pantazis     : SARC Basis sets
   Anastasios Papadopoulos: AUTO-CI, single reference methods and gradients
   Taras Petrenko         : DFT Hessian,TD-DFT gradient, ASA, ECA, R-Raman, ABS, FL, XAS/XES, NRVS
   Peter Pinski           : DLPNO-MP2, DLPNO-MP2 Gradient
   Christoph Reimann      : Effective Core Potentials
   Marius Retegan         : Local ZFS, SOC
   Christoph Riplinger    : Optimizer, TS searches, QM/MM, DLPNO-CCSD(T), (RO)-DLPNO pert. Triples
   Tobias Risthaus        : Range-separated hybrids, TD-DFT gradient, RPA, STAB
   Michael Roemelt        : Original ROCIS implementation
   Masaaki Saitow         : Open-shell DLPNO-CCSD energy and density
   Barbara Sandhoefer     : DKH picture change effects
   Avijit Sen             : IP-ROCIS
   Kantharuban Sivalingam : CASSCF convergence, NEVPT2, FIC-MRCI
   Bernardo de Souza      : ESD, SOC TD-DFT
   Georgi Stoychev        : AutoAux, RI-MP2 NMR, DLPNO-MP2 response
   Willem Van den Heuvel  : Paramagnetic NMR
   Boris Wezisla          : Elementary symmetry handling
   Frank Wennmohs         : Technical directorship


 We gratefully acknowledge several colleagues who have allowed us to
 interface, adapt or use parts of their codes:
   Stefan Grimme, W. Hujo, H. Kruse, P. Pracht,  : VdW corrections, initial TS optimization,
                  C. Bannwarth, S. Ehlert          DFT functionals, gCP, sTDA/sTD-DF
   Ed Valeev, F. Pavosevic, A. Kumar             : LibInt (2-el integral package), F12 methods
   Garnet Chan, S. Sharma, J. Yang, R. Olivares  : DMRG
   Ulf Ekstrom                                   : XCFun DFT Library
   Mihaly Kallay                                 : mrcc  (arbitrary order and MRCC methods)
   Jiri Pittner, Ondrej Demel                    : Mk-CCSD
   Frank Weinhold                                : gennbo (NPA and NBO analysis)
   Christopher J. Cramer and Donald G. Truhlar   : smd solvation model
   Lars Goerigk                                  : TD-DFT with DH, B97 family of functionals
   V. Asgeirsson, H. Jonsson                     : NEB implementation
   FAccTs GmbH                                   : IRC, NEB, NEB-TS, DLPNO-Multilevel, CI-OPT
                                                   MM, QMMM, 2- and 3-layer-ONIOM, Crystal-QMMM,
                                                   LR-CPCM, SF, NACMEs, symmetry and pop. for TD-DFT,
                                                   nearIR, NL-DFT gradient (VV10), updates on ESD,
                                                   ML-optimized integration grids
   S Lehtola, MJT Oliveira, MAL Marques          : LibXC Library
   Liviu Ungur et al                             : ANISO software


 Your calculation uses the libint2 library for the computation of 2-el integrals
 For citations please refer to: http://libint.valeyev.net

 Your ORCA version has been built with support for libXC version: 5.1.0
 For citations please refer to: https://tddft.org/programs/libxc/

 This ORCA versions uses:
   CBLAS   interface :  Fast vector & matrix operations
   LAPACKE interface :  Fast linear algebra routines
   SCALAPACK package :  Parallel linear algebra routines
   Shared memory     :  Shared parallel matrices
   BLAS/LAPACK       :  OpenBLAS 0.3.15  USE64BITINT DYNAMIC_ARCH NO_AFFINITY Haswell SINGLE_THREADED
        Core in use  :  Haswell
   Copyright (c) 2011-2014, The OpenBLAS Project


================================================================================

----- Orbital basis set information -----
Your calculation utilizes the basis: cc-pVDZ 
       H, B-Ne : Obtained from the ccRepo (grant-hill.group.shef.ac.uk/ccrepo) Feb. 2017
                 T. H. Dunning, Jr., J. Chem. Phys. 90, 1007 (1989)
            He : Obtained from the ccRepo (grant-hill.group.shef.ac.uk/ccrepo) Feb. 2017
                 D. E. Woon, T. H. Dunning, Jr., J. Chem. Phys. 100, 2975 (1994)
  Li-Be, Na-Mg : Obtained from the ccRepo (grant-hill.group.shef.ac.uk/ccrepo) Feb. 2017
                 B. P. Prascher, D. E. Woon, K. A. Peterson, T. H. Dunning, Jr., A. K. Wilson, Theor. Chem. Acc. 128, 69 (2011)
         Al-Ar : Obtained from the ccRepo (grant-hill.group.shef.ac.uk/ccrepo) Feb. 2017
                 D. E. Woon, T. H. Dunning, Jr., J. Chem. Phys. 98, 1358 (1993)
            Ca : Obtained from the Peterson Research Group Website (tyr0.chem.wsu.edu/~kipeters) Feb. 2017
                 J. Koput, K. A. Peterson, J. Phys. Chem. 106, 9595 (2002)
         Sc-Zn : Obtained from the ccRepo (grant-hill.group.shef.ac.uk/ccrepo) Feb. 2017
                 N. B. Balabanov, K. A. Peterson, J. Chem. Phys. 123, 064107 (2005)
                 N. B. Balabanov, K. A. Peterson, J. Chem. Phys. 125, 074110 (2006)
         Ga-Kr : Obtained from the ccRepo (grant-hill.group.shef.ac.uk/ccrepo) Feb. 2017
                 A. K. Wilson, D. E. Woon, K. A. Peterson, T. H. Dunning, Jr., J. Chem. Phys. 110, 7667 (1999)

----- AuxJ basis set information -----
Your calculation utilizes the auxiliary basis: def2/J
   F. Weigend, Phys. Chem. Chem. Phys. 8, 1057 (2006).

================================================================================
                                        WARNINGS
                       Please study these warnings very carefully!
================================================================================

INFO   : Checking CIS options ...

INFO   : the flag for use of the SHARK integral package has been found!

================================================================================
                                       INPUT FILE
================================================================================
NAME = acrolien.82.com
|  1> ! B3LYP cc-pVDZ
|  2> !TightSCF
|  3> %scf
|  4>  ConvForced true
|  5>  convergence tight
|  6>  MaxIter 500
|  7> end
|  8>  
|  9> %tddft 
| 10>  nroots 1
| 11> end
| 12> 
| 13> # 	32500
| 14> * xyz 0 1
| 15> 		C   -0.610058  -0.421027   0.083981
| 16> 		O   -0.560390  -1.589551  -0.069120
| 17> 		C    0.599281   0.361653  -0.062238
| 18> 		C    1.893879  -0.126485   0.028993
| 19> 		H   -1.688070   0.075207   0.467736
| 20> 		H    0.513723   1.336764  -0.361125
| 21> 		H    1.917912  -1.392699   0.435337
| 22> 		H    2.653639   0.665512  -0.083985
| 23> *
| 24> 
| 25>                          ****END OF INPUT****
================================================================================

                       ****************************
                       * Single Point Calculation *
                       ****************************

---------------------------------
CARTESIAN COORDINATES (ANGSTROEM)
---------------------------------
  C     -0.610058   -0.421027    0.083981
  O     -0.560390   -1.589551   -0.069120
  C      0.599281    0.361653   -0.062238
  C      1.893879   -0.126485    0.028993
  H     -1.688070    0.075207    0.467736
  H      0.513723    1.336764   -0.361125
  H      1.917912   -1.392699    0.435337
  H      2.653639    0.665512   -0.083985

----------------------------
CARTESIAN COORDINATES (A.U.)
----------------------------
  NO LB      ZA    FRAG     MASS         X           Y           Z
   0 C     6.0000    0    12.011   -1.152843   -0.795626    0.158701
   1 O     8.0000    0    15.999   -1.058984   -3.003816   -0.130618
   2 C     6.0000    0    12.011    1.132477    0.683425   -0.117613
   3 C     6.0000    0    12.011    3.578913   -0.239022    0.054789
   4 H     1.0000    0     1.008   -3.189990    0.142121    0.883893
   5 H     1.0000    0     1.008    0.970796    2.526118   -0.682427
   6 H     1.0000    0     1.008    3.624328   -2.631820    0.822668
   7 H     1.0000    0     1.008    5.014651    1.257635   -0.158709

--------------------------------
INTERNAL COORDINATES (ANGSTROEM)
--------------------------------
 C      0   0   0     0.000000000000     0.00000000     0.00000000
 O      1   0   0     1.179557190221     0.00000000     0.00000000
 C      1   2   0     1.447918780623   119.15818232     0.00000000
 C      3   1   2     1.386573396546   125.65321471   339.23990655
 H      1   2   3     1.247247351140   118.06489988   185.43850573
 H      3   1   2     1.023472067256   118.33868453   151.92438816
 H      4   3   1     1.330034181975   111.84680514   352.23162993
 H      4   3   1     1.103294400463   112.55044966   181.93442205

---------------------------
INTERNAL COORDINATES (A.U.)
---------------------------
 C      0   0   0     0.000000000000     0.00000000     0.00000000
 O      1   0   0     2.229040048814     0.00000000     0.00000000
 C      1   2   0     2.736169959539   119.15818232     0.00000000
 C      3   1   2     2.620243984053   125.65321471   339.23990655
 H      1   2   3     2.356955914913   118.06489988   185.43850573
 H      3   1   2     1.934081912833   118.33868453   151.92438816
 H      4   3   1     2.513400352686   111.84680514   352.23162993
 H      4   3   1     2.084924261964   112.55044966   181.93442205

---------------------
BASIS SET INFORMATION
---------------------
There are 3 groups of distinct atoms

 Group   1 Type C   : 17s4p1d contracted to 3s2p1d pattern {881/31/1}
 Group   2 Type O   : 17s4p1d contracted to 3s2p1d pattern {881/31/1}
 Group   3 Type H   : 4s1p contracted to 2s1p pattern {31/1}

Atom   0C    basis set group =>   1
Atom   1O    basis set group =>   2
Atom   2C    basis set group =>   1
Atom   3C    basis set group =>   1
Atom   4H    basis set group =>   3
Atom   5H    basis set group =>   3
Atom   6H    basis set group =>   3
Atom   7H    basis set group =>   3
---------------------------------
AUXILIARY/J BASIS SET INFORMATION
---------------------------------
There are 3 groups of distinct atoms

 Group   1 Type C   : 12s5p4d2f1g contracted to 6s4p3d1f1g pattern {711111/2111/211/2/1}
 Group   2 Type O   : 12s5p4d2f1g contracted to 6s4p3d1f1g pattern {711111/2111/211/2/1}
 Group   3 Type H   : 5s2p1d contracted to 3s1p1d pattern {311/2/1}

Atom   0C    basis set group =>   1
Atom   1O    basis set group =>   2
Atom   2C    basis set group =>   1
Atom   3C    basis set group =>   1
Atom   4H    basis set group =>   3
Atom   5H    basis set group =>   3
Atom   6H    basis set group =>   3
Atom   7H    basis set group =>   3
------------------------------------------------------------------------------
                           ORCA GTO INTEGRAL CALCULATION
                           -- RI-GTO INTEGRALS CHOSEN --
------------------------------------------------------------------------------
------------------------------------------------------------------------------
                   ___                                                        
                  /   \      - P O W E R E D   B Y -                         
                 /     \                                                     
                 |  |  |   _    _      __       _____    __    __             
                 |  |  |  | |  | |    /  \     |  _  \  |  |  /  |          
                  \  \/   | |  | |   /    \    | | | |  |  | /  /          
                 / \  \   | |__| |  /  /\  \   | |_| |  |  |/  /          
                |  |  |   |  __  | /  /__\  \  |    /   |      \           
                |  |  |   | |  | | |   __   |  |    \   |  |\   \          
                \     /   | |  | | |  |  |  |  | |\  \  |  | \   \       
                 \___/    |_|  |_| |__|  |__|  |_| \__\ |__|  \__/        
                                                                              
                      - O R C A' S   B I G   F R I E N D -                    
                                      &                                       
                       - I N T E G R A L  F E E D E R -                       
                                                                              
 v1 FN, 2020, v2 2021                                                         
------------------------------------------------------------------------------


Reading SHARK input file acrolien.82.SHARKINP.tmp ... ok
----------------------
SHARK INTEGRAL PACKAGE
----------------------

Number of atoms                             ...      8
Number of basis functions                   ...    100
Number of shells                            ...     60
Maximum angular momentum                    ...      2
Integral batch strategy                     ... SHARK/LIBINT Hybrid
RI-J (if used) integral strategy            ... SPLIT-RIJ (Revised 2003 algorithm where possible)
Printlevel                                  ...      1
Contraction scheme used                     ... PARTIAL GENERAL contraction
Coulomb Range Separation                    ... NOT USED
Exchange Range Separation                   ... NOT USED
Finite Nucleus Model                        ... NOT USED
Auxiliary Coulomb fitting basis             ... AVAILABLE
   # of basis functions in Aux-J            ...    240
   # of shells in Aux-J                     ...     80
   Maximum angular momentum in Aux-J        ...      4
Auxiliary J/K fitting basis                 ... NOT available
Auxiliary Correlation fitting basis         ... NOT available
Auxiliary 'external' fitting basis          ... NOT available
Integral threshold                          ...     2.500000e-11
Primitive cut-off                           ...     2.500000e-12
Primitive pair pre-selection threshold      ...     2.500000e-12

Calculating pre-screening integrals         ... done (  0.0 sec) Dimension = 60
Calculating pre-screening integrals (ORCA)  ... done (  0.1 sec) Dimension = 36
Organizing shell pair data                  ... done (  0.9 sec)
Shell pair information
Total number of shell pairs                 ...      1830
Shell pairs after pre-screening             ...      1539
Total number of primitive shell pairs       ...      2950
Primitive shell pairs kept                  ...      2296
          la=0 lb=0:    728 shell pairs
          la=1 lb=0:    504 shell pairs
          la=1 lb=1:     78 shell pairs
          la=2 lb=0:    171 shell pairs
          la=2 lb=1:     48 shell pairs
          la=2 lb=2:     10 shell pairs

Calculating one electron integrals          ... done (  0.0 sec)
Calculating RI/J V-Matrix + Cholesky decomp.... done (  0.8 sec)
Calculating Nuclear repulsion               ... done (  0.2 sec) ENN=    104.479396927274 Eh

SHARK setup successfully completed in   3.4 seconds

Maximum memory used throughout the entire GTOINT-calculation: 14.2 MB
-------------------------------------------------------------------------------
                                 ORCA SCF
-------------------------------------------------------------------------------

------------
SCF SETTINGS
------------
Hamiltonian:
 Density Functional     Method          .... DFT(GTOs)
 Exchange Functional    Exchange        .... B88
   X-Alpha parameter    XAlpha          ....  0.666667
   Becke's b parameter  XBeta           ....  0.004200
 Correlation Functional Correlation     .... LYP
 LDA part of GGA corr.  LDAOpt          .... VWN-5
 Gradients option       PostSCFGGA      .... off
 Hybrid DFT is turned on
   Fraction HF Exchange ScalHFX         ....  0.200000
   Scaling of DF-GGA-X  ScalDFX         ....  0.720000
   Scaling of DF-GGA-C  ScalDFC         ....  0.810000
   Scaling of DF-LDA-C  ScalLDAC        ....  1.000000
   Perturbative correction              ....  0.000000
   Density functional embedding theory  .... OFF
   NL short-range parameter             ....  4.800000
 RI-approximation to the Coulomb term is turned on
   Number of AuxJ basis functions       .... 240
   RIJ-COSX (HFX calculated with COS-X)).... on


General Settings:
 Integral files         IntName         .... acrolien.82
 Hartree-Fock type      HFTyp           .... RHF
 Total Charge           Charge          ....    0
 Multiplicity           Mult            ....    1
 Number of Electrons    NEL             ....   30
 Basis Dimension        Dim             ....   76
 Nuclear Repulsion      ENuc            ....    104.4793969273 Eh

Convergence Acceleration:
 DIIS                   CNVDIIS         .... on
   Start iteration      DIISMaxIt       ....    12
   Startup error        DIISStart       ....  0.200000
   # of expansion vecs  DIISMaxEq       ....     5
   Bias factor          DIISBfac        ....   1.050
   Max. coefficient     DIISMaxC        ....  10.000
 Trust-Rad. Augm. Hess. CNVTRAH         .... auto
   Auto Start mean grad. ratio tolernc. ....  1.125000
   Auto Start start iteration           ....    20
   Auto Start num. interpolation iter.  ....    10
   Max. Number of Micro iterations      ....    16
   Max. Number of Macro iterations      .... Maxiter - #DIIS iter
   Number of Davidson start vectors     ....     2
   Converg. threshold I  (grad. norm)   ....   1.000e-05
   Converg. threshold II (energy diff.) ....   1.000e-08
   Grad. Scal. Fac. for Micro threshold ....   0.100
   Minimum threshold for Micro iter.    ....   0.010
   NR start threshold (gradient norm)   ....   0.001
   Initial trust radius                 ....   0.400
   Minimum AH scaling param. (alpha)    ....   1.000
   Maximum AH scaling param. (alpha)    .... 1000.000
   Orbital update algorithm             .... Taylor
   White noise on init. David. guess    .... on
   Maximum white noise                  ....   0.010
   Quad. conv. algorithm                .... NR
 SOSCF                  CNVSOSCF        .... on
   Start iteration      SOSCFMaxIt      ....   150
   Startup grad/error   SOSCFStart      ....  0.003300
 Level Shifting         CNVShift        .... on
   Level shift para.    LevelShift      ....    0.2500
   Turn off err/grad.   ShiftErr        ....    0.0010
 Zerner damping         CNVZerner       .... off
 Static damping         CNVDamp         .... on
   Fraction old density DampFac         ....    0.7000
   Max. Damping (<1)    DampMax         ....    0.9800
   Min. Damping (>=0)   DampMin         ....    0.0000
   Turn off err/grad.   DampErr         ....    0.1000
 Fernandez-Rico         CNVRico         .... off

SCF Procedure:
 Maximum # iterations   MaxIter         ....   500
 SCF integral mode      SCFMode         .... Direct
   Integral package                     .... SHARK and LIBINT hybrid scheme
 Reset frequency        DirectResetFreq ....    20
 Integral Threshold     Thresh          ....  2.500e-11 Eh
 Primitive CutOff       TCut            ....  2.500e-12 Eh

Convergence Tolerance:
 Convergence Check Mode ConvCheckMode   .... Total+1el-Energy
 Convergence forced     ConvForced      .... 1
 Energy Change          TolE            ....  1.000e-08 Eh
 1-El. energy change                    ....  1.000e-05 Eh
 Orbital Gradient       TolG            ....  1.000e-05
 Orbital Rotation angle TolX            ....  1.000e-05
 DIIS Error             TolErr          ....  5.000e-07


Diagonalization of the overlap matrix:
Smallest eigenvalue                        ... 3.058e-03
Time for diagonalization                   ...    0.001 sec
Threshold for overlap eigenvalues          ... 1.000e-08
Number of eigenvalues below threshold      ... 0
Time for construction of square roots      ...    0.538 sec
Total time needed                          ...    0.539 sec

Time for model grid setup =    0.065 sec

------------------------------
INITIAL GUESS: MODEL POTENTIAL
------------------------------
Loading Hartree-Fock densities                     ... done
Calculating cut-offs                               ... done
Initializing the effective Hamiltonian             ... done
Setting up the integral package (SHARK)            ... done
Starting the Coulomb interaction                   ... done (   1.9 sec)
Reading the grid                                   ... done
Mapping shells                                     ... done
Starting the XC term evaluation                    ... done (   0.1 sec)
  promolecular density results
     # of electrons  =     29.998201859
     EX              =    -24.711128129
     EC              =     -0.993480526
     EX+EC           =    -25.704608656
Transforming the Hamiltonian                       ... done (   0.0 sec)
Diagonalizing the Hamiltonian                      ... done (   0.0 sec)
Back transforming the eigenvectors                 ... done (   0.0 sec)
Now organizing SCF variables                       ... done
                      ------------------
                      INITIAL GUESS DONE (   2.8 sec)
                      ------------------
-------------------
DFT GRID GENERATION
-------------------

General Integration Accuracy     IntAcc      ... 4.388
Radial Grid Type                 RadialGrid  ... OptM3 with GC (2021)
Angular Grid (max. ang.)         AngularGrid ... 4 (Lebedev-302)
Angular grid pruning method      GridPruning ... 4 (adaptive)
Weight generation scheme         WeightScheme... Becke
Basis function cutoff            BFCut       ... 1.0000e-11
Integration weight cutoff        WCut        ... 1.0000e-14
Angular grids for H and He will be reduced by one unit
Partially contracted basis set               ... off
Rotationally invariant grid construction     ... off

Total number of grid points                  ...    37410
Total number of batches                      ...      588
Average number of points per batch           ...       63
Average number of grid points per atom       ...     4676
Time for grid setup =    1.405 sec

--------------------
COSX GRID GENERATION
--------------------

GRIDX 1
-------
General Integration Accuracy     IntAcc      ... 3.816
Radial Grid Type                 RadialGrid  ... OptM3 with GC (2021)
Angular Grid (max. ang.)         AngularGrid ... 1 (Lebedev-50)
Angular grid pruning method      GridPruning ... 4 (adaptive)
Weight generation scheme         WeightScheme... Becke
Basis function cutoff            BFCut       ... 1.0000e-11
Integration weight cutoff        WCut        ... 1.0000e-14
Angular grids for H and He will be reduced by one unit
Partially contracted basis set               ... on
Rotationally invariant grid construction     ... off

Total number of grid points                  ...     4808
Total number of batches                      ...       80
Average number of points per batch           ...       60
Average number of grid points per atom       ...      601
UseSFitting                                  ... on

GRIDX 2
-------
General Integration Accuracy     IntAcc      ... 4.020
Radial Grid Type                 RadialGrid  ... OptM3 with GC (2021)
Angular Grid (max. ang.)         AngularGrid ... 2 (Lebedev-110)
Angular grid pruning method      GridPruning ... 4 (adaptive)
Weight generation scheme         WeightScheme... Becke
Basis function cutoff            BFCut       ... 1.0000e-11
Integration weight cutoff        WCut        ... 1.0000e-14
Angular grids for H and He will be reduced by one unit
Partially contracted basis set               ... on
Rotationally invariant grid construction     ... off

Total number of grid points                  ...    10562
Total number of batches                      ...      170
Average number of points per batch           ...       62
Average number of grid points per atom       ...     1320
UseSFitting                                  ... on

GRIDX 3
-------
General Integration Accuracy     IntAcc      ... 4.338
Radial Grid Type                 RadialGrid  ... OptM3 with GC (2021)
Angular Grid (max. ang.)         AngularGrid ... 3 (Lebedev-194)
Angular grid pruning method      GridPruning ... 4 (adaptive)
Weight generation scheme         WeightScheme... Becke
Basis function cutoff            BFCut       ... 1.0000e-11
Integration weight cutoff        WCut        ... 1.0000e-14
Angular grids for H and He will be reduced by one unit
Partially contracted basis set               ... on
Rotationally invariant grid construction     ... off

Total number of grid points                  ...    23309
Total number of batches                      ...      368
Average number of points per batch           ...       63
Average number of grid points per atom       ...     2914
UseSFitting                                  ... on

Time for X-Grid setup             =    6.163 sec

 re-compute Schwartz prescreening matrix in partically contracted basis (1) ...done (   1.096 sec)
--------------
SCF ITERATIONS
--------------
ITER       Energy         Delta-E        Max-DP      RMS-DP      [F,P]     Damp
               ***  Starting incremental Fock matrix formation  ***
  0   -191.6233150724   0.000000000000 0.09860885  0.00421411  0.2620355 0.7000
  1   -191.6894677166  -0.066152644200 0.05783392  0.00268388  0.0999776 0.7000
                               ***Turning on DIIS***
  2   -191.7114940384  -0.022026321829 0.06910716  0.00351760  0.0337816 0.0000
  3   -191.7495026491  -0.038008610647 0.03833246  0.00205629  0.0515624 0.0000
  4   -191.7572559050  -0.007753255947 0.00941288  0.00059797  0.0178484 0.0000
  5   -191.7582042568  -0.000948351778 0.00407372  0.00018866  0.0033281 0.0000
                      *** Initiating the SOSCF procedure ***
                           *** Shutting down DIIS ***
                      *** Re-Reading the Fockian *** 
                      *** Removing any level shift *** 
ITER      Energy       Delta-E        Grad      Rot      Max-DP    RMS-DP
  6   -191.75824484  -0.0000405806  0.000412  0.000412  0.001668  0.000080
               *** Restarting incremental Fock matrix formation ***
  7   -191.75823352   0.0000113183  0.000156  0.000616  0.001168  0.000055
  8   -191.75823373  -0.0000002104  0.000346  0.000655  0.000650  0.000030
  9   -191.75823456  -0.0000008331  0.000090  0.000224  0.000471  0.000021
 10   -191.75823465  -0.0000000846  0.000028  0.000034  0.000072  0.000005
 11   -191.75823468  -0.0000000331  0.000009  0.000028  0.000055  0.000003
 12   -191.75823468  -0.0000000024  0.000006  0.000012  0.000020  0.000001
 13   -191.75823468   0.0000000006  0.000007  0.000009  0.000018  0.000001
                 **** Energy Check signals convergence ****
              ***Rediagonalizing the Fockian in SOSCF/NRSCF***

               *****************************************************
               *                     SUCCESS                       *
               *           SCF CONVERGED AFTER  14 CYCLES          *
               *****************************************************

Old exchange energy                            =     -5.008867131 Eh
New exchange energy                            =     -5.008893023 Eh
Exchange energy change after final integration =     -0.000025891 Eh
Total energy after final integration           =   -191.758260574 Eh
Final COS-X integration done in                =     1.641 sec

----------------
TOTAL SCF ENERGY
----------------

Total Energy       :         -191.75826057 Eh           -5218.00755 eV

Components:
Nuclear Repulsion  :          104.47939693 Eh            2843.02893 eV
Electronic Energy  :         -296.23765750 Eh           -8061.03648 eV
One Electron Energy:         -466.19746755 Eh          -12685.87803 eV
Two Electron Energy:          169.95981004 Eh            4624.84155 eV
Max COSX asymmetry :            0.00000179 Eh               0.00005 eV

Virial components:
Potential Energy   :         -382.20822186 Eh          -10400.41446 eV
Kinetic Energy     :          190.44996128 Eh            5182.40692 eV
Virial Ratio       :            2.00686952


DFT components:
N(Alpha)           :       14.999989968792 electrons
N(Beta)            :       14.999989968792 electrons
N(Total)           :       29.999979937584 electrons
E(X)               :      -19.923058103889 Eh       
E(C)               :       -1.180040941807 Eh       
E(XC)              :      -21.103099045695 Eh       
DFET-embed. en.    :        0.000000000000 Eh       

---------------
SCF CONVERGENCE
---------------

  Last Energy change         ...   -4.2667e-10  Tolerance :   1.0000e-08
  Last MAX-Density change    ...    3.5527e-15  Tolerance :   1.0000e-07
  Last RMS-Density change    ...    6.9456e-17  Tolerance :   5.0000e-09
  Last Orbital Gradient      ...    1.2454e-06  Tolerance :   1.0000e-05
  Last Orbital Rotation      ...    3.0472e-06  Tolerance :   1.0000e-05

             **** THE GBW FILE WAS UPDATED (acrolien.82.gbw) ****
             **** DENSITY acrolien.82.scfp WAS UPDATED ****
             **** ENERGY FILE WAS UPDATED (acrolien.82.en.tmp) ****
             **** THE GBW FILE WAS UPDATED (acrolien.82.gbw) ****
             **** DENSITY acrolien.82.scfp WAS UPDATED ****
----------------
ORBITAL ENERGIES
----------------

  NO   OCC          E(Eh)            E(eV) 
   0   2.0000     -19.138899      -520.7959 
   1   2.0000     -10.280688      -279.7517 
   2   2.0000     -10.236151      -278.5398 
   3   2.0000     -10.200829      -277.5787 
   4   2.0000      -1.067908       -29.0593 
   5   2.0000      -0.787020       -21.4159 
   6   2.0000      -0.646115       -17.5817 
   7   2.0000      -0.524532       -14.2733 
   8   2.0000      -0.509936       -13.8761 
   9   2.0000      -0.439509       -11.9596 
  10   2.0000      -0.429099       -11.6764 
  11   2.0000      -0.401653       -10.9295 
  12   2.0000      -0.367035        -9.9875 
  13   2.0000      -0.282779        -7.6948 
  14   2.0000      -0.254070        -6.9136 
  15   0.0000      -0.067825        -1.8456 
  16   0.0000       0.039955         1.0872 
  17   0.0000       0.047331         1.2879 
  18   0.0000       0.073367         1.9964 
  19   0.0000       0.098734         2.6867 
  20   0.0000       0.143853         3.9144 
  21   0.0000       0.248186         6.7535 
  22   0.0000       0.271769         7.3952 
  23   0.0000       0.321709         8.7541 
  24   0.0000       0.399900        10.8818 
  25   0.0000       0.446941        12.1619 
  26   0.0000       0.477383        12.9902 
  27   0.0000       0.500317        13.6143 
  28   0.0000       0.502592        13.6762 
  29   0.0000       0.515842        14.0368 
  30   0.0000       0.572017        15.5654 
  31   0.0000       0.592893        16.1334 
  32   0.0000       0.627684        17.0801 
  33   0.0000       0.677913        18.4470 
  34   0.0000       0.681628        18.5480 
  35   0.0000       0.726517        19.7695 
  36   0.0000       0.763618        20.7791 
  37   0.0000       0.847689        23.0668 
  38   0.0000       0.897618        24.4254 
  39   0.0000       0.925262        25.1777 
  40   0.0000       0.983342        26.7581 
  41   0.0000       1.010465        27.4962 
  42   0.0000       1.033666        28.1275 
  43   0.0000       1.089160        29.6376 
  44   0.0000       1.099682        29.9239 
  45   0.0000       1.132096        30.8059 
  46   0.0000       1.202431        32.7198 
  47   0.0000       1.247062        33.9343 
  48   0.0000       1.321204        35.9518 
  49   0.0000       1.438888        39.1541 
  50   0.0000       1.489053        40.5192 
  51   0.0000       1.500879        40.8410 
  52   0.0000       1.518792        41.3284 
  53   0.0000       1.553882        42.2833 
  54   0.0000       1.633530        44.4506 
  55   0.0000       1.645227        44.7689 
  56   0.0000       1.705357        46.4051 
  57   0.0000       1.735454        47.2241 
  58   0.0000       1.744295        47.4647 
  59   0.0000       1.784382        48.5555 
  60   0.0000       1.866987        50.8033 
  61   0.0000       1.901916        51.7538 
  62   0.0000       1.920876        52.2697 
  63   0.0000       2.003522        54.5186 
  64   0.0000       2.097160        57.0666 
  65   0.0000       2.124483        57.8101 
  66   0.0000       2.223284        60.4986 
  67   0.0000       2.438687        66.3600 
  68   0.0000       2.502946        68.1086 
  69   0.0000       2.639837        71.8336 
  70   0.0000       2.692807        73.2750 
  71   0.0000       2.762772        75.1788 
  72   0.0000       2.872426        78.1627 
  73   0.0000       3.092159        84.1419 
  74   0.0000       3.406828        92.7045 
  75   0.0000       3.497647        95.1758 

                    ********************************
                    * MULLIKEN POPULATION ANALYSIS *
                    ********************************

-----------------------
MULLIKEN ATOMIC CHARGES
-----------------------
   0 C :    0.116887
   1 O :   -0.157689
   2 C :   -0.025462
   3 C :   -0.029477
   4 H :   -0.014571
   5 H :   -0.028155
   6 H :    0.088180
   7 H :    0.050287
Sum of atomic charges:    0.0000000

--------------------------------
MULLIKEN REDUCED ORBITAL CHARGES
--------------------------------
  0 C s       :     3.158789  s :     3.158789
      pz      :     0.777023  p :     2.574477
      px      :     0.898725
      py      :     0.898729
      dz2     :     0.006970  d :     0.149848
      dxz     :     0.008023
      dyz     :     0.032701
      dx2y2   :     0.035645
      dxy     :     0.066509
  1 O s       :     3.727447  s :     3.727447
      pz      :     1.297344  p :     4.410074
      px      :     1.736217
      py      :     1.376513
      dz2     :     0.002319  d :     0.020167
      dxz     :     0.000117
      dyz     :     0.006213
      dx2y2   :     0.006900
      dxy     :     0.004619
  2 C s       :     3.111219  s :     3.111219
      pz      :     0.990925  p :     2.859612
      px      :     0.945535
      py      :     0.923153
      dz2     :     0.002829  d :     0.054631
      dxz     :     0.008352
      dyz     :     0.003706
      dx2y2   :     0.022126
      dxy     :     0.017618
  3 C s       :     3.200972  s :     3.200972
      pz      :     0.900896  p :     2.788311
      px      :     0.979336
      py      :     0.908079
      dz2     :     0.001633  d :     0.040195
      dxz     :     0.007686
      dyz     :     0.002470
      dx2y2   :     0.012150
      dxy     :     0.016256
  4 H s       :     0.993834  s :     0.993834
      pz      :     0.003421  p :     0.020737
      px      :     0.013507
      py      :     0.003809
  5 H s       :     0.996069  s :     0.996069
      pz      :     0.008266  p :     0.032086
      px      :     0.005492
      py      :     0.018327
  6 H s       :     0.891335  s :     0.891335
      pz      :     0.003723  p :     0.020486
      px      :     0.002605
      py      :     0.014158
  7 H s       :     0.920738  s :     0.920738
      pz      :     0.005719  p :     0.028974
      px      :     0.011722
      py      :     0.011534


                     *******************************
                     * LOEWDIN POPULATION ANALYSIS *
                     *******************************

----------------------
LOEWDIN ATOMIC CHARGES
----------------------
   0 C :   -0.069427
   1 O :    0.027973
   2 C :   -0.077147
   3 C :   -0.007755
   4 H :   -0.000384
   5 H :    0.008774
   6 H :    0.078286
   7 H :    0.039680

-------------------------------
LOEWDIN REDUCED ORBITAL CHARGES
-------------------------------
  0 C s       :     2.889421  s :     2.889421
      pz      :     0.774124  p :     2.785454
      px      :     0.997999
      py      :     1.013330
      dz2     :     0.022822  d :     0.394552
      dxz     :     0.019206
      dyz     :     0.070546
      dx2y2   :     0.097261
      dxy     :     0.184717
  1 O s       :     3.470946  s :     3.470946
      pz      :     1.276345  p :     4.465498
      px      :     1.693270
      py      :     1.495884
      dz2     :     0.004740  d :     0.035583
      dxz     :     0.000179
      dyz     :     0.007864
      dx2y2   :     0.014553
      dxy     :     0.008247
  2 C s       :     2.835146  s :     2.835146
      pz      :     0.955852  p :     3.058465
      px      :     1.065368
      py      :     1.037245
      dz2     :     0.013908  d :     0.183537
      dxz     :     0.023511
      dyz     :     0.011679
      dx2y2   :     0.073813
      dxy     :     0.060625
  3 C s       :     2.933160  s :     2.933160
      pz      :     0.886091  p :     2.957406
      px      :     1.069412
      py      :     1.001903
      dz2     :     0.007915  d :     0.117189
      dxz     :     0.016222
      dyz     :     0.005382
      dx2y2   :     0.040796
      dxy     :     0.046874
  4 H s       :     0.946450  s :     0.946450
      pz      :     0.009205  p :     0.053934
      px      :     0.034228
      py      :     0.010501
  5 H s       :     0.891371  s :     0.891371
      pz      :     0.026176  p :     0.099855
      px      :     0.020490
      py      :     0.053190
  6 H s       :     0.875030  s :     0.875030
      pz      :     0.008800  p :     0.046684
      px      :     0.005830
      py      :     0.032055
  7 H s       :     0.877825  s :     0.877825
      pz      :     0.016510  p :     0.082495
      px      :     0.030602
      py      :     0.035384


                      *****************************
                      * MAYER POPULATION ANALYSIS *
                      *****************************

  NA   - Mulliken gross atomic population
  ZA   - Total nuclear charge
  QA   - Mulliken gross atomic charge
  VA   - Mayer's total valence
  BVA  - Mayer's bonded valence
  FA   - Mayer's free valence

  ATOM       NA         ZA         QA         VA         BVA        FA
  0 C      5.8831     6.0000     0.1169     4.1702     4.1702     0.0000
  1 O      8.1577     8.0000    -0.1577     2.3739     2.3739    -0.0000
  2 C      6.0255     6.0000    -0.0255     3.9592     3.9592     0.0000
  3 C      6.0295     6.0000    -0.0295     3.9188     3.9188     0.0000
  4 H      1.0146     1.0000    -0.0146     0.9652     0.9652     0.0000
  5 H      1.0282     1.0000    -0.0282     0.9778     0.9778     0.0000
  6 H      0.9118     1.0000     0.0882     0.9886     0.9886    -0.0000
  7 H      0.9497     1.0000     0.0503     0.9735     0.9735    -0.0000

  Mayer bond orders larger than 0.100000
B(  0-C ,  1-O ) :   2.2107 B(  0-C ,  2-C ) :   1.0389 B(  0-C ,  4-H ) :   0.8919 
B(  2-C ,  3-C ) :   1.9474 B(  2-C ,  5-H ) :   0.9442 B(  3-C ,  6-H ) :   0.9155 
B(  3-C ,  7-H ) :   0.9287 

-------
TIMINGS
-------

Total SCF time: 0 days 0 hours 2 min 39 sec 

Total time                  ....     159.796 sec
Sum of individual times     ....     143.417 sec  ( 89.7%)

Fock matrix formation       ....     132.957 sec  ( 83.2%)
  Split-RI-J                ....       2.807 sec  (  2.1% of F)
  Chain of spheres X        ....      11.032 sec  (  8.3% of F)
  XC integration            ....      50.673 sec  ( 38.1% of F)
    Basis function eval.    ....       1.928 sec  (  3.8% of XC)
    Density eval.           ....       0.827 sec  (  1.6% of XC)
    XC-Functional eval.     ....       0.613 sec  (  1.2% of XC)
    XC-Potential eval.      ....       0.649 sec  (  1.3% of XC)
Diagonalization             ....       0.007 sec  (  0.0%)
Density matrix formation    ....       0.001 sec  (  0.0%)
Population analysis         ....       0.022 sec  (  0.0%)
Initial guess               ....       2.736 sec  (  1.7%)
Orbital Transformation      ....       0.000 sec  (  0.0%)
Orbital Orthonormalization  ....       0.000 sec  (  0.0%)
DIIS solution               ....       0.045 sec  (  0.0%)
SOSCF solution              ....       0.017 sec  (  0.0%)
Grid generation             ....       7.632 sec  (  4.8%)

Maximum memory used throughout the entire SCF-calculation: 51.7 MB
------------------------------------------------------------------------------
                        ORCA TD-DFT/TDA CALCULATION
------------------------------------------------------------------------------

Input orbitals are from        ... acrolien.82.gbw
CI-vector output               ... acrolien.82.cis
Tamm-Dancoff approximation     ... operative
CIS-Integral strategy          ... AO-integrals
Integral handling              ... AO integral Direct
Max. core memory used          ... 512 MB
Reference state                ... RHF
Generation of triplets         ... off
Follow IRoot                   ... off
Number of operators            ... 1
Orbital ranges used for CIS calculation:
 Operator 0:  Orbitals   4... 14  to  15... 75
XAS localization array:
 Operator 0:  Orbitals  -1... -1

-------------------
XC-INTEGRATION GRID
-------------------

General Integration Accuracy     IntAcc      ... 3.467
Radial Grid Type                 RadialGrid  ... OptM3 with GC (2021)
Angular Grid (max. ang.)         AngularGrid ... 1 (Lebedev-50)
Angular grid pruning method      GridPruning ... 4 (adaptive)
Weight generation scheme         WeightScheme... Becke
Basis function cutoff            BFCut       ... 1.0000e-11
Integration weight cutoff        WCut        ... 1.0000e-14
Angular grids for H and He will be reduced by one unit
Partially contracted basis set               ... off
Rotationally invariant grid construction     ... off

Total number of grid points                  ...     5505
Total number of batches                      ...       91
Average number of points per batch           ...       60
Average number of grid points per atom       ...      688

---------------------
COSX-INTEGRATION GRID
---------------------

General Integration Accuracy     IntAcc      ... 3.067
Radial Grid Type                 RadialGrid  ... OptM3 with GC (2021)
Angular Grid (max. ang.)         AngularGrid ... 1 (Lebedev-50)
Angular grid pruning method      GridPruning ... 4 (adaptive)
Weight generation scheme         WeightScheme... Becke
Basis function cutoff            BFCut       ... 1.0000e-11
Integration weight cutoff        WCut        ... 1.0000e-14
Angular grids for H and He will be reduced by one unit
Partially contracted basis set               ... on
Rotationally invariant grid construction     ... off

Total number of grid points                  ...     2516
Total number of batches                      ...       46
Average number of points per batch           ...       54
Average number of grid points per atom       ...      314

---------------
TD-DFT XC SETUP
---------------

DFT calculation                         ... on
Name of the grid file                   ... acrolien.82.grid_cis.tmp
Exchange functional (TD-DFT)            ... B88
   X-Alpha parameter    XAlpha (TD-DFT) ...  0.666667
   Becke's b parameter  XBeta (TD-DFT)  ...  0.004200
Correlation functional (TD-DFT)         ... LYP
 LDA part of GGA corr.  LDAOpt (TD-DFT) ... VWN-5
Hybrid DFT                              ... on
   Exchange mixing (TD-DFT)             ...  0.200
   GGA exch. scaling (TD-DFT)           ...  0.720
   GGA corr. scaling (TD-DFT)           ...  0.810

Building densities             ... done
Calculating rho(r) on the grid ... done
Building xc-kernel on the grid ... done
                    *** TD-DFT CALCULATION INITIALIZED ***

------------------------
DAVIDSON-DIAGONALIZATION
------------------------

Dimension of the eigenvalue problem            ...    671
Number of roots to be determined               ...      1
Maximum size of the expansion space            ...     10
Maximum number of iterations                   ...    100
Convergence tolerance for the residual         ...    2.500e-07
Convergence tolerance for the energies         ...    2.500e-07
Orthogonality tolerance                        ...    1.000e-14
Level Shift                                    ...    0.000e+00
Constructing the preconditioner                ... o.k.
Building the initial guess                     ... o.k.
Number of trial vectors determined             ...     10


                       ****Iteration    0****

   Memory handling for direct AO based CIS:
   Memory per vector needed      ...     1 MB
   Memory needed                 ...     0 MB
   Memory available              ...   512 MB
   Number of vectors per batch   ...   512
   Number of batches             ...     1
   Time for densities:            0.000
   Time for RI-J (Direct):        0.070
   Time for K (COSX):             1.380
   Time for XC-Integration:       0.082
   Time for Sigma-Completion:     0.012
   Size of expansion space: 3
   Lowest Energy          :     0.132739763631
   Maximum Energy change  :     0.132739763631 (vector 0)
   Maximum residual norm  :     0.001283733872

                       ****Iteration    1****
   Time for densities:            0.000
   Time for RI-J (Direct):        0.055
   Time for K (COSX):             3.219
   Time for XC-Integration:       0.043
   Time for Sigma-Completion:     0.000
   Size of expansion space: 4
   Lowest Energy          :     0.130559631390
   Maximum Energy change  :     0.002180132242 (vector 0)
   Maximum residual norm  :     0.000135973384

                       ****Iteration    2****
   Time for densities:            0.000
   Time for RI-J (Direct):        0.055
   Time for K (COSX):             0.194
   Time for XC-Integration:       0.043
   Time for Sigma-Completion:     0.000
   Size of expansion space: 5
   Lowest Energy          :     0.130420784822
   Maximum Energy change  :     0.000138846568 (vector 0)
   Maximum residual norm  :     0.000025263990

                       ****Iteration    3****
   Time for densities:            0.000
   Time for RI-J (Direct):        0.055
   Time for K (COSX):             0.209
   Time for XC-Integration:       0.043
   Time for Sigma-Completion:     0.000
   Size of expansion space: 6
   Lowest Energy          :     0.130394618383
   Maximum Energy change  :     0.000026166439 (vector 0)
   Maximum residual norm  :     0.000000984940

                       ****Iteration    4****
   Time for densities:            0.000
   Time for RI-J (Direct):        0.055
   Time for K (COSX):             2.950
   Time for XC-Integration:       0.043
   Time for Sigma-Completion:     0.000
   Size of expansion space: 7
   Lowest Energy          :     0.130393437543
   Maximum Energy change  :     0.000001180840 (vector 0)
   Maximum residual norm  :     0.000000035478

      *** CONVERGENCE OF RESIDUAL NORM REACHED ***

Storing the converged CI vectors               ... acrolien.82.cis1

                 *** DAVIDSON DONE ***

Total time for solving the CIS problem:    15.222sec

------------------------------------
TD-DFT/TDA EXCITED STATES (SINGLETS)
------------------------------------

the weight of the individual excitations are printed if larger than 1.0e-02

STATE  1:  E=   0.130393 au      3.548 eV    28618.1 cm**-1 <S**2> =   0.000000
    13a ->  15a  :     0.027986 (c= -0.16729061)
    14a ->  15a  :     0.952106 (c=  0.97575912)


-----------------------------
TD-DFT/TDA-EXCITATION SPECTRA
-----------------------------

Center of mass = (  0.5756, -0.9092, -0.0012)
Calculating the Dipole integrals                  ... done
Transforming integrals                            ... done
Calculating the Linear Momentum integrals         ... done
Transforming integrals                            ... done
Calculating angular momentum integrals            ... done
Transforming integrals                            ... done

-----------------------------------------------------------------------------
         ABSORPTION SPECTRUM VIA TRANSITION ELECTRIC DIPOLE MOMENTS
-----------------------------------------------------------------------------
State   Energy    Wavelength  fosc         T2        TX        TY        TZ  
        (cm-1)      (nm)                 (au**2)    (au)      (au)      (au) 
-----------------------------------------------------------------------------
   1   28618.1    349.4   0.000753868   0.00867  -0.08076  -0.00685   0.04586

-----------------------------------------------------------------------------
         ABSORPTION SPECTRUM VIA TRANSITION VELOCITY DIPOLE MOMENTS
-----------------------------------------------------------------------------
State   Energy    Wavelength   fosc        P2         PX        PY        PZ  
        (cm-1)      (nm)                 (au**2)     (au)      (au)      (au) 
-----------------------------------------------------------------------------
   1   28618.1    349.4   0.001438896   0.00028   0.00683  -0.00257  -0.01510

-------------------------------------------------------------------
                             CD SPECTRUM
-------------------------------------------------------------------
State  Energy     Wavelength     R         MX        MY        MZ   
       (cm-1)       (nm)     (1e40*cgs)   (au)      (au)      (au)  
-------------------------------------------------------------------
   1   28618.1    349.4     -0.05482   0.01979   0.34604   0.08400

-------------------------------------------------------------------
         CD SPECTRUM VIA TRANSITION VELOCITY DIPOLE MOMENTS        
-------------------------------------------------------------------
State  Energy     Wavelength     R         MX        MY        MZ   
       (cm-1)       (nm)     (1e40*cgs)   (au)      (au)      (au)  
-------------------------------------------------------------------
   1   28618.1    349.4     -7.31280   0.01979   0.34604   0.08400

Total run time:       24.874 sec

           *** ORCA-CIS/TD-DFT FINISHED WITHOUT ERROR ***

Maximum memory used throughout the entire CIS-calculation: 48.6 MB

-----------------------
CIS/TD-DFT TOTAL ENERGY
-----------------------

    E(SCF)  =   -191.758260574 Eh
    DE(CIS) =      0.130393438 Eh (Root  1)
    ----------------------------- ---------
    E(tot)  =   -191.627867136 Eh


-------------------------   --------------------
FINAL SINGLE POINT ENERGY      -191.627867136375
-------------------------   --------------------


                            ***************************************
                            *     ORCA property calculations      *
                            ***************************************

                                    ---------------------
                                    Active property flags
                                    ---------------------
   (+) Dipole Moment


------------------------------------------------------------------------------
                       ORCA ELECTRIC PROPERTIES CALCULATION
------------------------------------------------------------------------------

Dipole Moment Calculation                       ... on
Quadrupole Moment Calculation                   ... off
Polarizability Calculation                      ... off
GBWName                                         ... acrolien.82.gbw
Electron density                                ... acrolien.82.scfp
The origin for moment calculation is the CENTER OF MASS  = ( 0.575595, -0.909178 -0.001174)

-------------
DIPOLE MOMENT
-------------
                                X             Y             Z
Electronic contribution:     -1.67360      -1.61151      -0.34955
Nuclear contribution   :      2.03134       2.43154       0.43097
                        -----------------------------------------
Total Dipole Moment    :      0.35774       0.82003       0.08142
                        -----------------------------------------
Magnitude (a.u.)       :      0.89836
Magnitude (Debye)      :      2.28346



--------------------
Rotational spectrum 
--------------------
 
Rotational constants in cm-1:     0.757970     0.209479     0.166611 
Rotational constants in MHz : 22723.357150  6280.020787  4994.861958 

 Dipole components along the rotational axes: 
x,y,z [a.u.] :     0.714485    -0.538081     0.083899 
x,y,z [Debye]:     1.816077    -1.367692     0.213255 

 

Timings for individual modules:

Sum of individual times         ...      188.418 sec (=   3.140 min)
GTO integral calculation        ...        3.711 sec (=   0.062 min)   2.0 %
SCF iterations                  ...      159.807 sec (=   2.663 min)  84.8 %
CIS module                      ...       24.899 sec (=   0.415 min)  13.2 %
                             ****ORCA TERMINATED NORMALLY****
TOTAL RUN TIME: 0 days 0 hours 3 minutes 11 seconds 780 msec
