
                                 *****************
                                 * O   R   C   A *
                                 *****************

                                            #,                                       
                                            ###                                      
                                            ####                                     
                                            #####                                    
                                            ######                                   
                                           ########,                                 
                                     ,,################,,,,,                         
                               ,,#################################,,                 
                          ,,##########################################,,             
                       ,#########################################, ''#####,          
                    ,#############################################,,   '####,        
                  ,##################################################,,,,####,       
                ,###########''''           ''''###############################       
              ,#####''   ,,,,##########,,,,          '''####'''          '####       
            ,##' ,,,,###########################,,,                        '##       
           ' ,,###''''                  '''############,,,                           
         ,,##''                                '''############,,,,        ,,,,,,###''
      ,#''                                            '''#######################'''  
     '                                                          ''''####''''         
             ,#######,   #######,   ,#######,      ##                                
            ,#'     '#,  ##    ##  ,#'     '#,    #''#        ######   ,####,        
            ##       ##  ##   ,#'  ##            #'  '#       #        #'  '#        
            ##       ##  #######   ##           ,######,      #####,   #    #        
            '#,     ,#'  ##    ##  '#,     ,#' ,#      #,         ##   #,  ,#        
             '#######'   ##     ##  '#######'  #'      '#     #####' # '####'        



                  #######################################################
                  #                        -***-                        #
                  #          Department of theory and spectroscopy      #
                  #    Directorship and core code : Frank Neese         #
                  #        Max Planck Institute fuer Kohlenforschung    #
                  #                Kaiser Wilhelm Platz 1               #
                  #                 D-45470 Muelheim/Ruhr               #
                  #                      Germany                        #
                  #                                                     #
                  #                  All rights reserved                #
                  #                        -***-                        #
                  #######################################################


                         Program Version 5.0.3 -  RELEASE  -


 With contributions from (in alphabetic order):
   Daniel Aravena         : Magnetic Suceptibility
   Michael Atanasov       : Ab Initio Ligand Field Theory (pilot matlab implementation)
   Alexander A. Auer      : GIAO ZORA, VPT2 properties, NMR spectrum
   Ute Becker             : Parallelization
   Giovanni Bistoni       : ED, misc. LED, open-shell LED, HFLD
   Martin Brehm           : Molecular dynamics
   Dmytro Bykov           : SCF Hessian
   Vijay G. Chilkuri      : MRCI spin determinant printing, contributions to CSF-ICE
   Dipayan Datta          : RHF DLPNO-CCSD density
   Achintya Kumar Dutta   : EOM-CC, STEOM-CC
   Dmitry Ganyushin       : Spin-Orbit,Spin-Spin,Magnetic field MRCI
   Miquel Garcia          : C-PCM and meta-GGA Hessian, CC/C-PCM, Gaussian charge scheme
   Yang Guo               : DLPNO-NEVPT2, F12-NEVPT2, CIM, IAO-localization
   Andreas Hansen         : Spin unrestricted coupled pair/coupled cluster methods
   Benjamin Helmich-Paris : MC-RPA, TRAH-SCF, COSX integrals
   Lee Huntington         : MR-EOM, pCC
   Robert Izsak           : Overlap fitted RIJCOSX, COSX-SCS-MP3, EOM
   Marcus Kettner         : VPT2
   Christian Kollmar      : KDIIS, OOCD, Brueckner-CCSD(T), CCSD density, CASPT2, CASPT2-K
   Simone Kossmann        : Meta GGA functionals, TD-DFT gradient, OOMP2, MP2 Hessian
   Martin Krupicka        : Initial AUTO-CI
   Lucas Lang             : DCDCAS
   Marvin Lechner         : AUTO-CI (C++ implementation), FIC-MRCC
   Dagmar Lenk            : GEPOL surface, SMD
   Dimitrios Liakos       : Extrapolation schemes; Compound Job, initial MDCI parallelization
   Dimitrios Manganas     : Further ROCIS development; embedding schemes
   Dimitrios Pantazis     : SARC Basis sets
   Anastasios Papadopoulos: AUTO-CI, single reference methods and gradients
   Taras Petrenko         : DFT Hessian,TD-DFT gradient, ASA, ECA, R-Raman, ABS, FL, XAS/XES, NRVS
   Peter Pinski           : DLPNO-MP2, DLPNO-MP2 Gradient
   Christoph Reimann      : Effective Core Potentials
   Marius Retegan         : Local ZFS, SOC
   Christoph Riplinger    : Optimizer, TS searches, QM/MM, DLPNO-CCSD(T), (RO)-DLPNO pert. Triples
   Tobias Risthaus        : Range-separated hybrids, TD-DFT gradient, RPA, STAB
   Michael Roemelt        : Original ROCIS implementation
   Masaaki Saitow         : Open-shell DLPNO-CCSD energy and density
   Barbara Sandhoefer     : DKH picture change effects
   Avijit Sen             : IP-ROCIS
   Kantharuban Sivalingam : CASSCF convergence, NEVPT2, FIC-MRCI
   Bernardo de Souza      : ESD, SOC TD-DFT
   Georgi Stoychev        : AutoAux, RI-MP2 NMR, DLPNO-MP2 response
   Willem Van den Heuvel  : Paramagnetic NMR
   Boris Wezisla          : Elementary symmetry handling
   Frank Wennmohs         : Technical directorship


 We gratefully acknowledge several colleagues who have allowed us to
 interface, adapt or use parts of their codes:
   Stefan Grimme, W. Hujo, H. Kruse, P. Pracht,  : VdW corrections, initial TS optimization,
                  C. Bannwarth, S. Ehlert          DFT functionals, gCP, sTDA/sTD-DF
   Ed Valeev, F. Pavosevic, A. Kumar             : LibInt (2-el integral package), F12 methods
   Garnet Chan, S. Sharma, J. Yang, R. Olivares  : DMRG
   Ulf Ekstrom                                   : XCFun DFT Library
   Mihaly Kallay                                 : mrcc  (arbitrary order and MRCC methods)
   Jiri Pittner, Ondrej Demel                    : Mk-CCSD
   Frank Weinhold                                : gennbo (NPA and NBO analysis)
   Christopher J. Cramer and Donald G. Truhlar   : smd solvation model
   Lars Goerigk                                  : TD-DFT with DH, B97 family of functionals
   V. Asgeirsson, H. Jonsson                     : NEB implementation
   FAccTs GmbH                                   : IRC, NEB, NEB-TS, DLPNO-Multilevel, CI-OPT
                                                   MM, QMMM, 2- and 3-layer-ONIOM, Crystal-QMMM,
                                                   LR-CPCM, SF, NACMEs, symmetry and pop. for TD-DFT,
                                                   nearIR, NL-DFT gradient (VV10), updates on ESD,
                                                   ML-optimized integration grids
   S Lehtola, MJT Oliveira, MAL Marques          : LibXC Library
   Liviu Ungur et al                             : ANISO software


 Your calculation uses the libint2 library for the computation of 2-el integrals
 For citations please refer to: http://libint.valeyev.net

 Your ORCA version has been built with support for libXC version: 5.1.0
 For citations please refer to: https://tddft.org/programs/libxc/

 This ORCA versions uses:
   CBLAS   interface :  Fast vector & matrix operations
   LAPACKE interface :  Fast linear algebra routines
   SCALAPACK package :  Parallel linear algebra routines
   Shared memory     :  Shared parallel matrices
   BLAS/LAPACK       :  OpenBLAS 0.3.15  USE64BITINT DYNAMIC_ARCH NO_AFFINITY Haswell SINGLE_THREADED
        Core in use  :  Haswell
   Copyright (c) 2011-2014, The OpenBLAS Project


Your calculation utilizes the geometrical counterpoise correction gCP
Please cite in your paper:
H.Kruse, S. Grimme J.Chem.Phys., 136, (2012), 154101 
   

Your calculation utilizes the atom-pairwise dispersion correction
with the Becke-Johnson damping scheme (D3BJ)
Cite in your paper:
S.Grimme, S.Ehrlich, L.Goerigk, J Comput Chem, (2011), 32, 1456–1465 
S.Grimme, J.Antony, S.Ehrlich and H.Krieg, J.Chem.Phys., 132, (2010), 154104 
   

================================================================================

----- Orbital basis set information -----
Your calculation utilizes the basis: MINIX,
   a combination of small basis sets by S. Grimme (see manual for definitions).

================================================================================
                                        WARNINGS
                       Please study these warnings very carefully!
================================================================================

INFO   : Checking CIS options ...

INFO   : the flag for use of the SHARK integral package has been found!

================================================================================
                                       INPUT FILE
================================================================================
NAME = acrolien.1020.com
|  1> ! HF-3c
|  2> !TightSCF
|  3> %scf
|  4>  ConvForced true
|  5>  convergence tight
|  6>  MaxIter 500
|  7> end
|  8>  
|  9> %tddft 
| 10>  nroots 1
| 11> end
| 12> 
| 13> # 	19894
| 14> * xyz 0 1
| 15> 		C   -1.226898  -0.347382   0.030071
| 16> 		O   -2.016045  -0.694673   0.826342
| 17> 		C    0.011320   0.438748   0.357478
| 18> 		C    1.203947   0.140641  -0.203124
| 19> 		H   -1.325064  -0.710008  -1.122369
| 20> 		H    0.038462   1.070963   1.236811
| 21> 		H    1.226662  -0.460104  -1.084567
| 22> 		H    2.091100   0.607638  -0.044614
| 23> *
| 24> 
| 25>                          ****END OF INPUT****
================================================================================

                       ****************************
                       * Single Point Calculation *
                       ****************************

---------------------------------
CARTESIAN COORDINATES (ANGSTROEM)
---------------------------------
  C     -1.226898   -0.347382    0.030071
  O     -2.016045   -0.694673    0.826342
  C      0.011320    0.438748    0.357478
  C      1.203947    0.140641   -0.203124
  H     -1.325064   -0.710008   -1.122369
  H      0.038462    1.070963    1.236811
  H      1.226662   -0.460104   -1.084567
  H      2.091100    0.607638   -0.044614

----------------------------
CARTESIAN COORDINATES (A.U.)
----------------------------
  NO LB      ZA    FRAG     MASS         X           Y           Z
   0 C     6.0000    0    12.011   -2.318501   -0.656457    0.056826
   1 O     8.0000    0    15.999   -3.809773   -1.312742    1.561560
   2 C     6.0000    0    12.011    0.021392    0.829114    0.675536
   3 C     6.0000    0    12.011    2.275130    0.265773   -0.383849
   4 H     1.0000    0     1.008   -2.504008   -1.341721   -2.120970
   5 H     1.0000    0     1.008    0.072683    2.023827    2.337234
   6 H     1.0000    0     1.008    2.318055   -0.869471   -2.049535
   7 H     1.0000    0     1.008    3.951606    1.148269   -0.084308

--------------------------------
INTERNAL COORDINATES (ANGSTROEM)
--------------------------------
 C      0   0   0     0.000000000000     0.00000000     0.00000000
 O      1   0   0     1.173631770076     0.00000000     0.00000000
 C      1   2   0     1.502790582907   124.12493240     0.00000000
 C      3   1   2     1.351111226725   121.43170967   137.07223801
 H      1   2   3     1.212127110922   120.13751961   174.02767822
 H      3   1   2     1.083355444569   120.18232314   334.00748042
 H      4   3   1     1.066935934580   119.06539784    17.74359625
 H      4   3   1     1.015013331695   127.24311543   180.20433062

---------------------------
INTERNAL COORDINATES (A.U.)
---------------------------
 C      0   0   0     0.000000000000     0.00000000     0.00000000
 O      1   0   0     2.217842627512     0.00000000     0.00000000
 C      1   2   0     2.839862638330   124.12493240     0.00000000
 C      3   1   2     2.553230194976   121.43170967   137.07223801
 H      1   2   3     2.290588279144   120.13751961   174.02767822
 H      3   1   2     2.047245095929   120.18232314   334.00748042
 H      4   3   1     2.016216718796   119.06539784    17.74359625
 H      4   3   1     1.918097219182   127.24311543   180.20433062

---------------------
BASIS SET INFORMATION
---------------------
There are 3 groups of distinct atoms

 Group   1 Type C   : 6s3p contracted to 2s1p pattern {33/3}
 Group   2 Type O   : 6s3p contracted to 2s1p pattern {33/3}
 Group   3 Type H   : 3s contracted to 1s pattern {3}

Atom   0C    basis set group =>   1
Atom   1O    basis set group =>   2
Atom   2C    basis set group =>   1
Atom   3C    basis set group =>   1
Atom   4H    basis set group =>   3
Atom   5H    basis set group =>   3
Atom   6H    basis set group =>   3
Atom   7H    basis set group =>   3
------------------------------------------------------------------------------
                           ORCA GTO INTEGRAL CALCULATION
------------------------------------------------------------------------------
------------------------------------------------------------------------------
                   ___                                                        
                  /   \      - P O W E R E D   B Y -                         
                 /     \                                                     
                 |  |  |   _    _      __       _____    __    __             
                 |  |  |  | |  | |    /  \     |  _  \  |  |  /  |          
                  \  \/   | |  | |   /    \    | | | |  |  | /  /          
                 / \  \   | |__| |  /  /\  \   | |_| |  |  |/  /          
                |  |  |   |  __  | /  /__\  \  |    /   |      \           
                |  |  |   | |  | | |   __   |  |    \   |  |\   \          
                \     /   | |  | | |  |  |  |  | |\  \  |  | \   \       
                 \___/    |_|  |_| |__|  |__|  |_| \__\ |__|  \__/        
                                                                              
                      - O R C A' S   B I G   F R I E N D -                    
                                      &                                       
                       - I N T E G R A L  F E E D E R -                       
                                                                              
 v1 FN, 2020, v2 2021                                                         
------------------------------------------------------------------------------


Reading SHARK input file acrolien.1020.SHARKINP.tmp ... ok
----------------------
SHARK INTEGRAL PACKAGE
----------------------

Number of atoms                             ...      8
Number of basis functions                   ...     24
Number of shells                            ...     16
Maximum angular momentum                    ...      1
Integral batch strategy                     ... SHARK/LIBINT Hybrid
RI-J (if used) integral strategy            ... SPLIT-RIJ (Revised 2003 algorithm where possible)
Printlevel                                  ...      1
Contraction scheme used                     ... SEGMENTED contraction
Coulomb Range Separation                    ... NOT USED
Exchange Range Separation                   ... NOT USED
Finite Nucleus Model                        ... NOT USED
Auxiliary Coulomb fitting basis             ... NOT available
Auxiliary J/K fitting basis                 ... NOT available
Auxiliary Correlation fitting basis         ... NOT available
Auxiliary 'external' fitting basis          ... NOT available
Integral threshold                          ...     2.500000e-11
Primitive cut-off                           ...     2.500000e-12
Primitive pair pre-selection threshold      ...     2.500000e-12

Calculating pre-screening integrals         ... done (  0.0 sec) Dimension = 16
Organizing shell pair data                  ... done (  0.1 sec)
Shell pair information
Total number of shell pairs                 ...       136
Shell pairs after pre-screening             ...       133
Total number of primitive shell pairs       ...      1224
Primitive shell pairs kept                  ...       994
          la=0 lb=0:     75 shell pairs
          la=1 lb=0:     48 shell pairs
          la=1 lb=1:     10 shell pairs

Calculating one electron integrals          ... done (  0.0 sec)
Calculating Nuclear repulsion               ... done (  0.2 sec) ENN=    103.176865327856 Eh
Calculating 4-index integrals               ... 
    -> SHARK/Ints2Disk: Thresh =     2.500000e-11 TCut=    2.500000e-12 
    -> calling libint FockFlag=2 Lmax_loc=1
    ->Total LIBINT loop time =    0.000 sec
    -> L=0 0 0 0:     0.003 sec done=      2814 (=100.0%) skipped=         0 
    -> L=1 0 0 0:     0.007 sec done=      3588 (=100.0%) skipped=         0 
    -> L=1 0 1 0:     0.004 sec done=      1175 (=100.0%) skipped=         0 
    -> L=1 1 0 0:     0.003 sec done=       750 (=100.0%) skipped=         0 
    -> L=1 1 1 0:     0.004 sec done=       480 (=100.0%) skipped=         0 
    -> L=1 1 1 1:     0.001 sec done=        55 (=100.0%) skipped=         0 
    ->Total SHARK integral loop time =    0.123 sec
    -> Total Integral generation matrix time =    0.714 sec
    -> Number of small integrals   =       837
    -> Number of medium integrals  =      2499
    -> Number of large integrals   =     40360
    -> Number of MB stored         =         0 MB


SHARK setup successfully completed in   2.3 seconds

Maximum memory used throughout the entire GTOINT-calculation: 29.5 MB
-------------------------------------------------------------------------------
                                 ORCA SCF
-------------------------------------------------------------------------------

------------
SCF SETTINGS
------------
Hamiltonian:
 Ab initio Hamiltonian  Method          .... Hartree-Fock(GTOs)


General Settings:
 Integral files         IntName         .... acrolien.1020
 Hartree-Fock type      HFTyp           .... RHF
 Total Charge           Charge          ....    0
 Multiplicity           Mult            ....    1
 Number of Electrons    NEL             ....   30
 Basis Dimension        Dim             ....   24
 Nuclear Repulsion      ENuc            ....    103.1768653279 Eh

Convergence Acceleration:
 DIIS                   CNVDIIS         .... on
   Start iteration      DIISMaxIt       ....    12
   Startup error        DIISStart       ....  0.200000
   # of expansion vecs  DIISMaxEq       ....     5
   Bias factor          DIISBfac        ....   1.050
   Max. coefficient     DIISMaxC        ....  10.000
 Trust-Rad. Augm. Hess. CNVTRAH         .... auto
   Auto Start mean grad. ratio tolernc. ....  1.125000
   Auto Start start iteration           ....    20
   Auto Start num. interpolation iter.  ....    10
   Max. Number of Micro iterations      ....    16
   Max. Number of Macro iterations      .... Maxiter - #DIIS iter
   Number of Davidson start vectors     ....     2
   Converg. threshold I  (grad. norm)   ....   1.000e-05
   Converg. threshold II (energy diff.) ....   1.000e-08
   Grad. Scal. Fac. for Micro threshold ....   0.100
   Minimum threshold for Micro iter.    ....   0.010
   NR start threshold (gradient norm)   ....   0.001
   Initial trust radius                 ....   0.400
   Minimum AH scaling param. (alpha)    ....   1.000
   Maximum AH scaling param. (alpha)    .... 1000.000
   Orbital update algorithm             .... Taylor
   White noise on init. David. guess    .... on
   Maximum white noise                  ....   0.010
   Quad. conv. algorithm                .... NR
 SOSCF                  CNVSOSCF        .... on
   Start iteration      SOSCFMaxIt      ....   150
   Startup grad/error   SOSCFStart      ....  0.003300
 Level Shifting         CNVShift        .... on
   Level shift para.    LevelShift      ....    0.2500
   Turn off err/grad.   ShiftErr        ....    0.0010
 Zerner damping         CNVZerner       .... off
 Static damping         CNVDamp         .... on
   Fraction old density DampFac         ....    0.7000
   Max. Damping (<1)    DampMax         ....    0.9800
   Min. Damping (>=0)   DampMin         ....    0.0000
   Turn off err/grad.   DampErr         ....    0.1000
 Fernandez-Rico         CNVRico         .... off

SCF Procedure:
 Maximum # iterations   MaxIter         ....   500
 SCF integral mode      SCFMode         .... Conventional
 Integral Threshold     Thresh          ....  2.500e-11 Eh
 Primitive CutOff       TCut            ....  2.500e-12 Eh
 Integral Buffer length BufferLength    .... 1048576
 Integral index format  IndFormat       ....     0
 Integral value format  ValFormat       ....     0
 Integral Storage       Thresh          ....  2.500e-11 Eh

Convergence Tolerance:
 Convergence Check Mode ConvCheckMode   .... Total+1el-Energy
 Convergence forced     ConvForced      .... 1
 Energy Change          TolE            ....  1.000e-08 Eh
 1-El. energy change                    ....  1.000e-05 Eh
 Orbital Gradient       TolG            ....  1.000e-05
 Orbital Rotation angle TolX            ....  1.000e-05
 DIIS Error             TolErr          ....  5.000e-07


Diagonalization of the overlap matrix:
Smallest eigenvalue                        ... 1.885e-01
Time for diagonalization                   ...    0.000 sec
Threshold for overlap eigenvalues          ... 1.000e-08
Number of eigenvalues below threshold      ... 0
Time for construction of square roots      ...    0.214 sec
Total time needed                          ...    0.214 sec

--------------------------------
INITIAL GUESS: MINIMAL BASIS EHT
--------------------------------
The minimal basis has 24 functions
EHT matrix was diagonalized
Basis set overlap was calculated now projecting the orbitals
Using GuessMode=FMatrix for the initial guess
C*T matrix was formed
Effective Fockian was calculated
Effective Fockian was diagonalized
Initial density was built
                      ------------------
                      INITIAL GUESS DONE
                      ------------------

 InCore treatment chosen:
   Memory dedicated               ...    1024 MB
   Memory needed                  ...      0 MB
   Number of tiny    integrals    ...     837
   Number of small   integrals    ...    2499
   Number of regular integrals    ...   40360

--------------
SCF ITERATIONS
--------------
ITER       Energy         Delta-E        Max-DP      RMS-DP      [F,P]     Damp
  0   -189.0638160565   0.000000000000 0.11313380  0.01331477  0.2357018 0.7000
  1   -189.1689455864  -0.105129529832 0.09253555  0.01065712  0.1714542 0.7000
                               ***Turning on DIIS***
  2   -189.2376645441  -0.068718957713 0.05758133  0.00697242  0.1240837 0.7000
  3   -189.2685735108  -0.030908966753 0.12012895  0.01411114  0.0896146 0.0000
  4   -189.3918248370  -0.123251326167 0.01649166  0.00166554  0.0067572 0.0000
                      *** Initiating the SOSCF procedure ***
                           *** Shutting down DIIS ***
                      *** Re-Reading the Fockian *** 
                      *** Removing any level shift *** 
ITER      Energy       Delta-E        Grad      Rot      Max-DP    RMS-DP
  5   -189.39170653   0.0001183054  0.002562  0.002562  0.005920  0.000726
  6   -189.39363882  -0.0019322919  0.000631  0.001107  0.001755  0.000281
  7   -189.39365208  -0.0000132562  0.000361  0.001009  0.001384  0.000207
  8   -189.39365463  -0.0000025507  0.000127  0.000198  0.000449  0.000042
  9   -189.39365492  -0.0000002851  0.000067  0.000226  0.000288  0.000035
 10   -189.39365502  -0.0000000995  0.000032  0.000164  0.000288  0.000024
 11   -189.39365504  -0.0000000275  0.000014  0.000038  0.000083  0.000007
 12   -189.39365505  -0.0000000037  0.000005  0.000010  0.000025  0.000003
                 **** Energy Check signals convergence ****
              ***Rediagonalizing the Fockian in SOSCF/NRSCF***

               *****************************************************
               *                     SUCCESS                       *
               *           SCF CONVERGED AFTER  13 CYCLES          *
               *****************************************************


----------------
TOTAL SCF ENERGY
----------------

Total Energy       :         -189.39365505 Eh           -5153.66336 eV

Components:
Nuclear Repulsion  :          103.17686533 Eh            2807.58524 eV
Electronic Energy  :         -292.57052037 Eh           -7961.24860 eV
One Electron Energy:         -460.98168073 Eh          -12543.94925 eV
Two Electron Energy:          168.41116035 Eh            4582.70065 eV

Virial components:
Potential Energy   :         -378.48708479 Eh          -10299.15718 eV
Kinetic Energy     :          189.09342974 Eh            5145.49382 eV
Virial Ratio       :            2.00158771


---------------
SCF CONVERGENCE
---------------

  Last Energy change         ...   -7.6199e-10  Tolerance :   1.0000e-08
  Last MAX-Density change    ...    6.0348e-06  Tolerance :   1.0000e-07
  Last RMS-Density change    ...    8.1444e-07  Tolerance :   5.0000e-09
  Last Orbital Gradient      ...    1.5713e-06  Tolerance :   1.0000e-05
  Last Orbital Rotation      ...    3.2106e-06  Tolerance :   1.0000e-05

             **** THE GBW FILE WAS UPDATED (acrolien.1020.gbw) ****
             **** DENSITY acrolien.1020.scfp WAS UPDATED ****
             **** ENERGY FILE WAS UPDATED (acrolien.1020.en.tmp) ****
             **** THE GBW FILE WAS UPDATED (acrolien.1020.gbw) ****
             **** DENSITY acrolien.1020.scfp WAS UPDATED ****
----------------
ORBITAL ENERGIES
----------------

  NO   OCC          E(Eh)            E(eV) 
   0   2.0000     -20.384455      -554.6892 
   1   2.0000     -11.311063      -307.7897 
   2   2.0000     -11.195360      -304.6412 
   3   2.0000     -11.190246      -304.5021 
   4   2.0000      -1.434586       -39.0371 
   5   2.0000      -1.080634       -29.4055 
   6   2.0000      -0.879300       -23.9270 
   7   2.0000      -0.771148       -20.9840 
   8   2.0000      -0.672950       -18.3119 
   9   2.0000      -0.661674       -18.0051 
  10   2.0000      -0.594989       -16.1905 
  11   2.0000      -0.558168       -15.1885 
  12   2.0000      -0.538128       -14.6432 
  13   2.0000      -0.406277       -11.0554 
  14   2.0000      -0.400704       -10.9037 
  15   0.0000       0.141458         3.8493 
  16   0.0000       0.280760         7.6399 
  17   0.0000       0.507332        13.8052 
  18   0.0000       0.589869        16.0512 
  19   0.0000       0.676086        18.3972 
  20   0.0000       0.733095        19.9485 
  21   0.0000       0.891419        24.2567 
  22   0.0000       0.898772        24.4568 
  23   0.0000       1.015863        27.6430 

                    ********************************
                    * MULLIKEN POPULATION ANALYSIS *
                    ********************************

-----------------------
MULLIKEN ATOMIC CHARGES
-----------------------
   0 C :    0.195456
   1 O :   -0.357987
   2 C :   -0.160133
   3 C :   -0.246465
   4 H :    0.131855
   5 H :    0.155369
   6 H :    0.137050
   7 H :    0.144855
Sum of atomic charges:   -0.0000000

--------------------------------
MULLIKEN REDUCED ORBITAL CHARGES
--------------------------------
  0 C s       :     3.068580  s :     3.068580
      pz      :     0.982499  p :     2.735964
      px      :     0.869498
      py      :     0.883967
  1 O s       :     3.823581  s :     3.823581
      pz      :     1.669875  p :     4.534406
      px      :     1.485229
      py      :     1.379303
  2 C s       :     3.103272  s :     3.103272
      pz      :     1.057886  p :     3.056860
      px      :     0.979244
      py      :     1.019730
  3 C s       :     3.124246  s :     3.124246
      pz      :     1.043615  p :     3.122219
      px      :     1.060367
      py      :     1.018237
  4 H s       :     0.868145  s :     0.868145
  5 H s       :     0.844631  s :     0.844631
  6 H s       :     0.862950  s :     0.862950
  7 H s       :     0.855145  s :     0.855145


                     *******************************
                     * LOEWDIN POPULATION ANALYSIS *
                     *******************************

----------------------
LOEWDIN ATOMIC CHARGES
----------------------
   0 C :    0.155695
   1 O :   -0.248437
   2 C :   -0.114906
   3 C :   -0.143551
   4 H :    0.075822
   5 H :    0.100391
   6 H :    0.086509
   7 H :    0.088477

-------------------------------
LOEWDIN REDUCED ORBITAL CHARGES
-------------------------------
  0 C s       :     3.001957  s :     3.001957
      pz      :     1.014058  p :     2.842348
      px      :     0.926455
      py      :     0.901835
  1 O s       :     3.676978  s :     3.676978
      pz      :     1.688334  p :     4.571459
      px      :     1.502377
      py      :     1.380747
  2 C s       :     2.989276  s :     2.989276
      pz      :     1.060241  p :     3.125630
      px      :     1.037900
      py      :     1.027489
  3 C s       :     2.987387  s :     2.987387
      pz      :     1.048595  p :     3.156164
      px      :     1.085472
      py      :     1.022097
  4 H s       :     0.924178  s :     0.924178
  5 H s       :     0.899609  s :     0.899609
  6 H s       :     0.913491  s :     0.913491
  7 H s       :     0.911523  s :     0.911523


                      *****************************
                      * MAYER POPULATION ANALYSIS *
                      *****************************

  NA   - Mulliken gross atomic population
  ZA   - Total nuclear charge
  QA   - Mulliken gross atomic charge
  VA   - Mayer's total valence
  BVA  - Mayer's bonded valence
  FA   - Mayer's free valence

  ATOM       NA         ZA         QA         VA         BVA        FA
  0 C      5.8045     6.0000     0.1955     3.8511     3.8511    -0.0000
  1 O      8.3580     8.0000    -0.3580     2.0872     2.0872    -0.0000
  2 C      6.1601     6.0000    -0.1601     3.9698     3.9698    -0.0000
  3 C      6.2465     6.0000    -0.2465     3.9561     3.9561    -0.0000
  4 H      0.8681     1.0000     0.1319     0.9826     0.9826    -0.0000
  5 H      0.8446     1.0000     0.1554     0.9759     0.9759     0.0000
  6 H      0.8630     1.0000     0.1370     0.9812     0.9812    -0.0000
  7 H      0.8551     1.0000     0.1449     0.9790     0.9790     0.0000

  Mayer bond orders larger than 0.100000
B(  0-C ,  1-O ) :   1.9334 B(  0-C ,  2-C ) :   0.9977 B(  0-C ,  4-H ) :   0.9039 
B(  2-C ,  3-C ) :   1.9638 B(  2-C ,  5-H ) :   0.9543 B(  3-C ,  6-H ) :   0.9667 
B(  3-C ,  7-H ) :   0.9675 

-------
TIMINGS
-------

Total SCF time: 0 days 0 hours 0 min 5 sec 

Total time                  ....       5.829 sec
Sum of individual times     ....       0.734 sec  ( 12.6%)

Fock matrix formation       ....       0.084 sec  (  1.4%)
Diagonalization             ....       0.001 sec  (  0.0%)
Density matrix formation    ....       0.000 sec  (  0.0%)
Population analysis         ....       0.634 sec  ( 10.9%)
Initial guess               ....       0.002 sec  (  0.0%)
Orbital Transformation      ....       0.000 sec  (  0.0%)
Orbital Orthonormalization  ....       0.000 sec  (  0.0%)
DIIS solution               ....       0.001 sec  (  0.0%)
SOSCF solution              ....       0.012 sec  (  0.2%)

Maximum memory used throughout the entire SCF-calculation: 224.9 MB
------------------------------------------------------------------------------
                         ORCA CIS CALCULATION
------------------------------------------------------------------------------

Input orbitals are from        ... acrolien.1020.gbw
CI-vector output               ... acrolien.1020.cis
Tamm-Dancoff approximation     ... operative
CIS-Integral strategy          ... AO-integrals
Integral handling              ... AO integral Conventional
Reference state                ... RHF
Generation of triplets         ... off
Follow IRoot                   ... off
Number of operators            ... 1
Orbital ranges used for CIS calculation:
 Operator 0:  Orbitals   4... 14  to  15... 23
XAS localization array:
 Operator 0:  Orbitals  -1... -1

------------------------
DAVIDSON-DIAGONALIZATION
------------------------

Dimension of the eigenvalue problem            ...     99
Number of roots to be determined               ...      1
Maximum size of the expansion space            ...     10
Maximum number of iterations                   ...    100
Convergence tolerance for the residual         ...    2.500e-07
Convergence tolerance for the energies         ...    2.500e-07
Orthogonality tolerance                        ...    1.000e-14
Level Shift                                    ...    0.000e+00
Constructing the preconditioner                ... o.k.
Building the initial guess                     ... o.k.
Number of trial vectors determined             ...     10


                       ****Iteration    0****

   Memory handling for direct AO based CIS:
   Memory per vector needed      ...     1 MB
   Memory needed                 ...     0 MB
   Memory available              ...   512 MB
   Number of vectors per batch   ...   512
   Number of batches             ...     1
   Time for densities:            0.001
   SHARK[4]
   Time for Sigma-Completion:     0.000
   Size of expansion space: 3
   Lowest Energy          :     0.234409170677
   Maximum Energy change  :     0.234409170677 (vector 0)
   Maximum residual norm  :     0.014939056986

                       ****Iteration    1****
   Time for densities:            0.000
   SHARK[4]
   Time for Sigma-Completion:     0.000
   Size of expansion space: 4
   Lowest Energy          :     0.169845370034
   Maximum Energy change  :     0.064563800643 (vector 0)
   Maximum residual norm  :     0.002400433951

                       ****Iteration    2****
   Time for densities:            0.000
   SHARK[4]
   Time for Sigma-Completion:     0.000
   Size of expansion space: 5
   Lowest Energy          :     0.163671490704
   Maximum Energy change  :     0.006173879330 (vector 0)
   Maximum residual norm  :     0.000435255209

                       ****Iteration    3****
   Time for densities:            0.000
   SHARK[4]
   Time for Sigma-Completion:     0.000
   Size of expansion space: 6
   Lowest Energy          :     0.163147380495
   Maximum Energy change  :     0.000524110210 (vector 0)
   Maximum residual norm  :     0.000019826442

                       ****Iteration    4****
   Time for densities:            0.000
   SHARK[4]
   Time for Sigma-Completion:     0.000
   Size of expansion space: 7
   Lowest Energy          :     0.163106656544
   Maximum Energy change  :     0.000040723951 (vector 0)
   Maximum residual norm  :     0.000001390331

                       ****Iteration    5****
   Time for densities:            0.000
   SHARK[4]
   Time for Sigma-Completion:     0.000
   Size of expansion space: 8
   Lowest Energy          :     0.163103862760
   Maximum Energy change  :     0.000002793784 (vector 0)
   Maximum residual norm  :     0.000000126820

      *** CONVERGENCE OF RESIDUAL NORM REACHED ***

Storing the converged CI vectors               ... acrolien.1020.cis1

                 *** DAVIDSON DONE ***

Total time for solving the CIS problem:     2.003sec

-----------------------------
CIS-EXCITED STATES (SINGLETS)
-----------------------------

the weight of the individual excitations are printed if larger than 1.0e-02

STATE  1:  E=   0.163104 au      4.438 eV    35797.2 cm**-1 <S**2> =   0.000000
     8a ->  15a  :     0.015697 (c=  0.12528657)
     8a ->  16a  :     0.016964 (c=  0.13024531)
    12a ->  15a  :     0.010632 (c= -0.10311339)
    13a ->  15a  :     0.691898 (c=  0.83180384)
    13a ->  16a  :     0.234864 (c=  0.48462782)


----------------------
CIS-EXCITATION SPECTRA
----------------------

Center of mass = ( -1.0229, -0.2634,  0.4858)
Calculating the Dipole integrals                  ... done
Transforming integrals                            ... done
Calculating the Linear Momentum integrals         ... done
Transforming integrals                            ... done
Calculating angular momentum integrals            ... done
Transforming integrals                            ... done

-----------------------------------------------------------------------------
         ABSORPTION SPECTRUM VIA TRANSITION ELECTRIC DIPOLE MOMENTS
-----------------------------------------------------------------------------
State   Energy    Wavelength  fosc         T2        TX        TY        TZ  
        (cm-1)      (nm)                 (au**2)    (au)      (au)      (au) 
-----------------------------------------------------------------------------
   1   35797.2    279.4   0.000124591   0.00115   0.02684  -0.00697  -0.01941

-----------------------------------------------------------------------------
         ABSORPTION SPECTRUM VIA TRANSITION VELOCITY DIPOLE MOMENTS
-----------------------------------------------------------------------------
State   Energy    Wavelength   fosc        P2         PX        PY        PZ  
        (cm-1)      (nm)                 (au**2)     (au)      (au)      (au) 
-----------------------------------------------------------------------------
   1   35797.2    279.4   0.000573843   0.00014  -0.00142   0.01055  -0.00520

-------------------------------------------------------------------
                             CD SPECTRUM
-------------------------------------------------------------------
State  Energy     Wavelength     R         MX        MY        MZ   
       (cm-1)       (nm)     (1e40*cgs)   (au)      (au)      (au)  
-------------------------------------------------------------------
   1   35797.2    279.4     -6.72051  -0.35716  -0.20236   0.31309

-------------------------------------------------------------------
         CD SPECTRUM VIA TRANSITION VELOCITY DIPOLE MOMENTS        
-------------------------------------------------------------------
State  Energy     Wavelength     R         MX        MY        MZ   
       (cm-1)       (nm)     (1e40*cgs)   (au)      (au)      (au)  
-------------------------------------------------------------------
   1   35797.2    279.4     -9.40881  -0.35716  -0.20236   0.31309

Total run time:        2.328 sec

           *** ORCA-CIS/TD-DFT FINISHED WITHOUT ERROR ***

Maximum memory used throughout the entire CIS-calculation: 51.7 MB

-----------------------
CIS/TD-DFT TOTAL ENERGY
-----------------------

    E(SCF)  =   -189.393655047 Eh
    DE(CIS) =      0.163103863 Eh (Root  1)
    ----------------------------- ---------
    E(tot)  =   -189.230551184 Eh



-------------------------------------------------------------------------------
                          DFT DISPERSION CORRECTION                            
                                                                               
                              DFTD3 V3.1  Rev 1                                
                          USING Becke-Johnson damping                          
-------------------------------------------------------------------------------
Hartree-Fock is recognized
Active option DFTDOPT                   ...         4   

molecular C6(AA) [au] = 661.720136 


            DFT-D V3
 parameters
 using HF/MINIX parameters
 s6 scaling factor         :     1.0000 
 a1 scaling factor         :     0.4171 
 s8 scaling factor         :     0.8777 
 a2 scaling factor         :     2.9149 
 ad hoc parameters k1-k3   :    16.0000     1.3333    -4.0000 

 Edisp/kcal,au: -15.807787233430  -0.025191309774 
 E6   /kcal   :  -8.767416278 
 E8   /kcal   :  -7.040370955 
 % E8         :  44.537359031 

-------------------------   ----------------
Dispersion correction           -0.025191310
-------------------------   ----------------

------------------   -----------------
gCP+bas correction        -0.056851580
------------------   -----------------
----------------------------   ----------------
Total correction to HF/MINIX       -0.082042890
----------------------------   ----------------


-------------------------   --------------------
FINAL SINGLE POINT ENERGY      -189.312594074465
-------------------------   --------------------


                            ***************************************
                            *     ORCA property calculations      *
                            ***************************************

                                    ---------------------
                                    Active property flags
                                    ---------------------
   (+) Dipole Moment


------------------------------------------------------------------------------
                       ORCA ELECTRIC PROPERTIES CALCULATION
------------------------------------------------------------------------------

Dipole Moment Calculation                       ... on
Quadrupole Moment Calculation                   ... off
Polarizability Calculation                      ... off
GBWName                                         ... acrolien.1020.gbw
Electron density                                ... acrolien.1020.scfp
The origin for moment calculation is the CENTER OF MASS  = (-1.022894, -0.263413  0.485810)

-------------
DIPOLE MOMENT
-------------
                                X             Y             Z
Electronic contribution:     -3.11993      -0.71043       1.27203
Nuclear contribution   :      3.91509       0.99194      -1.90833
                        -----------------------------------------
Total Dipole Moment    :      0.79515       0.28151      -0.63630
                        -----------------------------------------
Magnitude (a.u.)       :      1.05659
Magnitude (Debye)      :      2.68565



--------------------
Rotational spectrum 
--------------------
 
Rotational constants in cm-1:     1.351602     0.156343     0.145879 
Rotational constants in MHz : 40520.018610  4687.060163  4373.345815 

 Dipole components along the rotational axes: 
x,y,z [a.u.] :    -0.967409    -0.339530    -0.255397 
x,y,z [Debye]:    -2.458959    -0.863018    -0.649167 

 

Timings for individual modules:

Sum of individual times         ...       12.871 sec (=   0.215 min)
GTO integral calculation        ...        3.799 sec (=   0.063 min)  29.5 %
SCF iterations                  ...        6.346 sec (=   0.106 min)  49.3 %
CIS module                      ...        2.725 sec (=   0.045 min)  21.2 %
                             ****ORCA TERMINATED NORMALLY****
TOTAL RUN TIME: 0 days 0 hours 0 minutes 15 seconds 928 msec
