
                                 *****************
                                 * O   R   C   A *
                                 *****************

                                            #,                                       
                                            ###                                      
                                            ####                                     
                                            #####                                    
                                            ######                                   
                                           ########,                                 
                                     ,,################,,,,,                         
                               ,,#################################,,                 
                          ,,##########################################,,             
                       ,#########################################, ''#####,          
                    ,#############################################,,   '####,        
                  ,##################################################,,,,####,       
                ,###########''''           ''''###############################       
              ,#####''   ,,,,##########,,,,          '''####'''          '####       
            ,##' ,,,,###########################,,,                        '##       
           ' ,,###''''                  '''############,,,                           
         ,,##''                                '''############,,,,        ,,,,,,###''
      ,#''                                            '''#######################'''  
     '                                                          ''''####''''         
             ,#######,   #######,   ,#######,      ##                                
            ,#'     '#,  ##    ##  ,#'     '#,    #''#        ######   ,####,        
            ##       ##  ##   ,#'  ##            #'  '#       #        #'  '#        
            ##       ##  #######   ##           ,######,      #####,   #    #        
            '#,     ,#'  ##    ##  '#,     ,#' ,#      #,         ##   #,  ,#        
             '#######'   ##     ##  '#######'  #'      '#     #####' # '####'        



                  #######################################################
                  #                        -***-                        #
                  #          Department of theory and spectroscopy      #
                  #    Directorship and core code : Frank Neese         #
                  #        Max Planck Institute fuer Kohlenforschung    #
                  #                Kaiser Wilhelm Platz 1               #
                  #                 D-45470 Muelheim/Ruhr               #
                  #                      Germany                        #
                  #                                                     #
                  #                  All rights reserved                #
                  #                        -***-                        #
                  #######################################################


                         Program Version 5.0.3 -  RELEASE  -


 With contributions from (in alphabetic order):
   Daniel Aravena         : Magnetic Suceptibility
   Michael Atanasov       : Ab Initio Ligand Field Theory (pilot matlab implementation)
   Alexander A. Auer      : GIAO ZORA, VPT2 properties, NMR spectrum
   Ute Becker             : Parallelization
   Giovanni Bistoni       : ED, misc. LED, open-shell LED, HFLD
   Martin Brehm           : Molecular dynamics
   Dmytro Bykov           : SCF Hessian
   Vijay G. Chilkuri      : MRCI spin determinant printing, contributions to CSF-ICE
   Dipayan Datta          : RHF DLPNO-CCSD density
   Achintya Kumar Dutta   : EOM-CC, STEOM-CC
   Dmitry Ganyushin       : Spin-Orbit,Spin-Spin,Magnetic field MRCI
   Miquel Garcia          : C-PCM and meta-GGA Hessian, CC/C-PCM, Gaussian charge scheme
   Yang Guo               : DLPNO-NEVPT2, F12-NEVPT2, CIM, IAO-localization
   Andreas Hansen         : Spin unrestricted coupled pair/coupled cluster methods
   Benjamin Helmich-Paris : MC-RPA, TRAH-SCF, COSX integrals
   Lee Huntington         : MR-EOM, pCC
   Robert Izsak           : Overlap fitted RIJCOSX, COSX-SCS-MP3, EOM
   Marcus Kettner         : VPT2
   Christian Kollmar      : KDIIS, OOCD, Brueckner-CCSD(T), CCSD density, CASPT2, CASPT2-K
   Simone Kossmann        : Meta GGA functionals, TD-DFT gradient, OOMP2, MP2 Hessian
   Martin Krupicka        : Initial AUTO-CI
   Lucas Lang             : DCDCAS
   Marvin Lechner         : AUTO-CI (C++ implementation), FIC-MRCC
   Dagmar Lenk            : GEPOL surface, SMD
   Dimitrios Liakos       : Extrapolation schemes; Compound Job, initial MDCI parallelization
   Dimitrios Manganas     : Further ROCIS development; embedding schemes
   Dimitrios Pantazis     : SARC Basis sets
   Anastasios Papadopoulos: AUTO-CI, single reference methods and gradients
   Taras Petrenko         : DFT Hessian,TD-DFT gradient, ASA, ECA, R-Raman, ABS, FL, XAS/XES, NRVS
   Peter Pinski           : DLPNO-MP2, DLPNO-MP2 Gradient
   Christoph Reimann      : Effective Core Potentials
   Marius Retegan         : Local ZFS, SOC
   Christoph Riplinger    : Optimizer, TS searches, QM/MM, DLPNO-CCSD(T), (RO)-DLPNO pert. Triples
   Tobias Risthaus        : Range-separated hybrids, TD-DFT gradient, RPA, STAB
   Michael Roemelt        : Original ROCIS implementation
   Masaaki Saitow         : Open-shell DLPNO-CCSD energy and density
   Barbara Sandhoefer     : DKH picture change effects
   Avijit Sen             : IP-ROCIS
   Kantharuban Sivalingam : CASSCF convergence, NEVPT2, FIC-MRCI
   Bernardo de Souza      : ESD, SOC TD-DFT
   Georgi Stoychev        : AutoAux, RI-MP2 NMR, DLPNO-MP2 response
   Willem Van den Heuvel  : Paramagnetic NMR
   Boris Wezisla          : Elementary symmetry handling
   Frank Wennmohs         : Technical directorship


 We gratefully acknowledge several colleagues who have allowed us to
 interface, adapt or use parts of their codes:
   Stefan Grimme, W. Hujo, H. Kruse, P. Pracht,  : VdW corrections, initial TS optimization,
                  C. Bannwarth, S. Ehlert          DFT functionals, gCP, sTDA/sTD-DF
   Ed Valeev, F. Pavosevic, A. Kumar             : LibInt (2-el integral package), F12 methods
   Garnet Chan, S. Sharma, J. Yang, R. Olivares  : DMRG
   Ulf Ekstrom                                   : XCFun DFT Library
   Mihaly Kallay                                 : mrcc  (arbitrary order and MRCC methods)
   Jiri Pittner, Ondrej Demel                    : Mk-CCSD
   Frank Weinhold                                : gennbo (NPA and NBO analysis)
   Christopher J. Cramer and Donald G. Truhlar   : smd solvation model
   Lars Goerigk                                  : TD-DFT with DH, B97 family of functionals
   V. Asgeirsson, H. Jonsson                     : NEB implementation
   FAccTs GmbH                                   : IRC, NEB, NEB-TS, DLPNO-Multilevel, CI-OPT
                                                   MM, QMMM, 2- and 3-layer-ONIOM, Crystal-QMMM,
                                                   LR-CPCM, SF, NACMEs, symmetry and pop. for TD-DFT,
                                                   nearIR, NL-DFT gradient (VV10), updates on ESD,
                                                   ML-optimized integration grids
   S Lehtola, MJT Oliveira, MAL Marques          : LibXC Library
   Liviu Ungur et al                             : ANISO software


 Your calculation uses the libint2 library for the computation of 2-el integrals
 For citations please refer to: http://libint.valeyev.net

 Your ORCA version has been built with support for libXC version: 5.1.0
 For citations please refer to: https://tddft.org/programs/libxc/

 This ORCA versions uses:
   CBLAS   interface :  Fast vector & matrix operations
   LAPACKE interface :  Fast linear algebra routines
   SCALAPACK package :  Parallel linear algebra routines
   Shared memory     :  Shared parallel matrices
   BLAS/LAPACK       :  OpenBLAS 0.3.15  USE64BITINT DYNAMIC_ARCH NO_AFFINITY Haswell SINGLE_THREADED
        Core in use  :  Haswell
   Copyright (c) 2011-2014, The OpenBLAS Project


Your calculation utilizes the geometrical counterpoise correction gCP
Please cite in your paper:
H.Kruse, S. Grimme J.Chem.Phys., 136, (2012), 154101 
   

Your calculation utilizes the atom-pairwise dispersion correction
with the Becke-Johnson damping scheme (D3BJ)
Cite in your paper:
S.Grimme, S.Ehrlich, L.Goerigk, J Comput Chem, (2011), 32, 1456–1465 
S.Grimme, J.Antony, S.Ehrlich and H.Krieg, J.Chem.Phys., 132, (2010), 154104 
   

================================================================================

----- Orbital basis set information -----
Your calculation utilizes the basis: MINIX,
   a combination of small basis sets by S. Grimme (see manual for definitions).

================================================================================
                                        WARNINGS
                       Please study these warnings very carefully!
================================================================================

INFO   : Checking CIS options ...

INFO   : the flag for use of the SHARK integral package has been found!

================================================================================
                                       INPUT FILE
================================================================================
NAME = acrolien.997.com
|  1> ! HF-3c
|  2> !TightSCF
|  3> %scf
|  4>  ConvForced true
|  5>  convergence tight
|  6>  MaxIter 500
|  7> end
|  8>  
|  9> %tddft 
| 10>  nroots 1
| 11> end
| 12> 
| 13> # 	22879
| 14> * xyz 0 1
| 15> 		C   -0.531719  -0.469369   0.031143
| 16> 		O   -0.610356  -1.655223  -0.024724
| 17> 		C    0.598579   0.442177   0.007365
| 18> 		C    1.849458  -0.092040  -0.012216
| 19> 		H   -1.642605   0.023799   0.026940
| 20> 		H    0.699076   1.665390  -0.140633
| 21> 		H    1.847450  -1.185475   0.263761
| 22> 		H    2.953605   0.401503  -0.086274
| 23> *
| 24> 
| 25>                          ****END OF INPUT****
================================================================================

                       ****************************
                       * Single Point Calculation *
                       ****************************

---------------------------------
CARTESIAN COORDINATES (ANGSTROEM)
---------------------------------
  C     -0.531719   -0.469369    0.031143
  O     -0.610356   -1.655223   -0.024724
  C      0.598579    0.442177    0.007365
  C      1.849458   -0.092040   -0.012216
  H     -1.642605    0.023799    0.026940
  H      0.699076    1.665390   -0.140633
  H      1.847450   -1.185475    0.263761
  H      2.953605    0.401503   -0.086274

----------------------------
CARTESIAN COORDINATES (A.U.)
----------------------------
  NO LB      ZA    FRAG     MASS         X           Y           Z
   0 C     6.0000    0    12.011   -1.004803   -0.886979    0.058852
   1 O     8.0000    0    15.999   -1.153406   -3.127918   -0.046722
   2 C     6.0000    0    12.011    1.131150    0.835593    0.013918
   3 C     6.0000    0    12.011    3.494969   -0.173930   -0.023085
   4 H     1.0000    0     1.008   -3.104074    0.044974    0.050909
   5 H     1.0000    0     1.008    1.321062    3.147131   -0.265758
   6 H     1.0000    0     1.008    3.491175   -2.240223    0.498436
   7 H     1.0000    0     1.008    5.581505    0.758731   -0.163034

--------------------------------
INTERNAL COORDINATES (ANGSTROEM)
--------------------------------
 C      0   0   0     0.000000000000     0.00000000     0.00000000
 O      1   0   0     1.189770821954     0.00000000     0.00000000
 C      1   2   0     1.452258610649   132.55369985     0.00000000
 C      3   1   2     1.360319628356   117.99705481   355.91662294
 H      1   2   3     1.215442325423   110.11131428   175.05222262
 H      3   1   2     1.236225342881   133.33785226   166.90233453
 H      4   3   1     1.127726667157   112.06219458   344.96475290
 H      4   3   1     1.211697106468   132.75384609   176.61370500

---------------------------
INTERNAL COORDINATES (A.U.)
---------------------------
 C      0   0   0     0.000000000000     0.00000000     0.00000000
 O      1   0   0     2.248341015624     0.00000000     0.00000000
 C      1   2   0     2.744371049755   132.55369985     0.00000000
 C      3   1   2     2.570631552191   117.99705481   355.91662294
 H      1   2   3     2.296853126625   110.11131428   175.05222262
 H      3   1   2     2.336127337859   133.33785226   166.90233453
 H      4   3   1     2.131094554847   112.06219458   344.96475290
 H      4   3   1     2.289775688489   132.75384609   176.61370500

---------------------
BASIS SET INFORMATION
---------------------
There are 3 groups of distinct atoms

 Group   1 Type C   : 6s3p contracted to 2s1p pattern {33/3}
 Group   2 Type O   : 6s3p contracted to 2s1p pattern {33/3}
 Group   3 Type H   : 3s contracted to 1s pattern {3}

Atom   0C    basis set group =>   1
Atom   1O    basis set group =>   2
Atom   2C    basis set group =>   1
Atom   3C    basis set group =>   1
Atom   4H    basis set group =>   3
Atom   5H    basis set group =>   3
Atom   6H    basis set group =>   3
Atom   7H    basis set group =>   3
------------------------------------------------------------------------------
                           ORCA GTO INTEGRAL CALCULATION
------------------------------------------------------------------------------
------------------------------------------------------------------------------
                   ___                                                        
                  /   \      - P O W E R E D   B Y -                         
                 /     \                                                     
                 |  |  |   _    _      __       _____    __    __             
                 |  |  |  | |  | |    /  \     |  _  \  |  |  /  |          
                  \  \/   | |  | |   /    \    | | | |  |  | /  /          
                 / \  \   | |__| |  /  /\  \   | |_| |  |  |/  /          
                |  |  |   |  __  | /  /__\  \  |    /   |      \           
                |  |  |   | |  | | |   __   |  |    \   |  |\   \          
                \     /   | |  | | |  |  |  |  | |\  \  |  | \   \       
                 \___/    |_|  |_| |__|  |__|  |_| \__\ |__|  \__/        
                                                                              
                      - O R C A' S   B I G   F R I E N D -                    
                                      &                                       
                       - I N T E G R A L  F E E D E R -                       
                                                                              
 v1 FN, 2020, v2 2021                                                         
------------------------------------------------------------------------------


Reading SHARK input file acrolien.997.SHARKINP.tmp ... ok
----------------------
SHARK INTEGRAL PACKAGE
----------------------

Number of atoms                             ...      8
Number of basis functions                   ...     24
Number of shells                            ...     16
Maximum angular momentum                    ...      1
Integral batch strategy                     ... SHARK/LIBINT Hybrid
RI-J (if used) integral strategy            ... SPLIT-RIJ (Revised 2003 algorithm where possible)
Printlevel                                  ...      1
Contraction scheme used                     ... SEGMENTED contraction
Coulomb Range Separation                    ... NOT USED
Exchange Range Separation                   ... NOT USED
Finite Nucleus Model                        ... NOT USED
Auxiliary Coulomb fitting basis             ... NOT available
Auxiliary J/K fitting basis                 ... NOT available
Auxiliary Correlation fitting basis         ... NOT available
Auxiliary 'external' fitting basis          ... NOT available
Integral threshold                          ...     2.500000e-11
Primitive cut-off                           ...     2.500000e-12
Primitive pair pre-selection threshold      ...     2.500000e-12

Calculating pre-screening integrals         ... done (  0.0 sec) Dimension = 16
Organizing shell pair data                  ... done (  0.1 sec)
Shell pair information
Total number of shell pairs                 ...       136
Shell pairs after pre-screening             ...       133
Total number of primitive shell pairs       ...      1224
Primitive shell pairs kept                  ...       993
          la=0 lb=0:     75 shell pairs
          la=1 lb=0:     48 shell pairs
          la=1 lb=1:     10 shell pairs

Calculating one electron integrals          ... done (  0.0 sec)
Calculating Nuclear repulsion               ... done (  0.0 sec) ENN=    103.457330218886 Eh
Calculating 4-index integrals               ... 
    -> SHARK/Ints2Disk: Thresh =     2.500000e-11 TCut=    2.500000e-12 
    -> calling libint FockFlag=2 Lmax_loc=1
    ->Total LIBINT loop time =    0.000 sec
    -> L=0 0 0 0:     0.003 sec done=      2824 (=100.0%) skipped=         0 
    -> L=1 0 0 0:     0.007 sec done=      3596 (=100.0%) skipped=         0 
    -> L=1 0 1 0:     0.004 sec done=      1176 (=100.0%) skipped=         0 
    -> L=1 1 0 0:     0.003 sec done=       750 (=100.0%) skipped=         0 
    -> L=1 1 1 0:     0.004 sec done=       480 (=100.0%) skipped=         0 
    -> L=1 1 1 1:     0.001 sec done=        55 (=100.0%) skipped=         0 
    ->Total SHARK integral loop time =    0.022 sec
    -> Total Integral generation matrix time =    0.028 sec
    -> Number of small integrals   =       719
    -> Number of medium integrals  =      2816
    -> Number of large integrals   =     40223
    -> Number of MB stored         =         0 MB


SHARK setup successfully completed in   1.1 seconds

Maximum memory used throughout the entire GTOINT-calculation: 29.5 MB
-------------------------------------------------------------------------------
                                 ORCA SCF
-------------------------------------------------------------------------------

------------
SCF SETTINGS
------------
Hamiltonian:
 Ab initio Hamiltonian  Method          .... Hartree-Fock(GTOs)


General Settings:
 Integral files         IntName         .... acrolien.997
 Hartree-Fock type      HFTyp           .... RHF
 Total Charge           Charge          ....    0
 Multiplicity           Mult            ....    1
 Number of Electrons    NEL             ....   30
 Basis Dimension        Dim             ....   24
 Nuclear Repulsion      ENuc            ....    103.4573302189 Eh

Convergence Acceleration:
 DIIS                   CNVDIIS         .... on
   Start iteration      DIISMaxIt       ....    12
   Startup error        DIISStart       ....  0.200000
   # of expansion vecs  DIISMaxEq       ....     5
   Bias factor          DIISBfac        ....   1.050
   Max. coefficient     DIISMaxC        ....  10.000
 Trust-Rad. Augm. Hess. CNVTRAH         .... auto
   Auto Start mean grad. ratio tolernc. ....  1.125000
   Auto Start start iteration           ....    20
   Auto Start num. interpolation iter.  ....    10
   Max. Number of Micro iterations      ....    16
   Max. Number of Macro iterations      .... Maxiter - #DIIS iter
   Number of Davidson start vectors     ....     2
   Converg. threshold I  (grad. norm)   ....   1.000e-05
   Converg. threshold II (energy diff.) ....   1.000e-08
   Grad. Scal. Fac. for Micro threshold ....   0.100
   Minimum threshold for Micro iter.    ....   0.010
   NR start threshold (gradient norm)   ....   0.001
   Initial trust radius                 ....   0.400
   Minimum AH scaling param. (alpha)    ....   1.000
   Maximum AH scaling param. (alpha)    .... 1000.000
   Orbital update algorithm             .... Taylor
   White noise on init. David. guess    .... on
   Maximum white noise                  ....   0.010
   Quad. conv. algorithm                .... NR
 SOSCF                  CNVSOSCF        .... on
   Start iteration      SOSCFMaxIt      ....   150
   Startup grad/error   SOSCFStart      ....  0.003300
 Level Shifting         CNVShift        .... on
   Level shift para.    LevelShift      ....    0.2500
   Turn off err/grad.   ShiftErr        ....    0.0010
 Zerner damping         CNVZerner       .... off
 Static damping         CNVDamp         .... on
   Fraction old density DampFac         ....    0.7000
   Max. Damping (<1)    DampMax         ....    0.9800
   Min. Damping (>=0)   DampMin         ....    0.0000
   Turn off err/grad.   DampErr         ....    0.1000
 Fernandez-Rico         CNVRico         .... off

SCF Procedure:
 Maximum # iterations   MaxIter         ....   500
 SCF integral mode      SCFMode         .... Conventional
 Integral Threshold     Thresh          ....  2.500e-11 Eh
 Primitive CutOff       TCut            ....  2.500e-12 Eh
 Integral Buffer length BufferLength    .... 1048576
 Integral index format  IndFormat       ....     0
 Integral value format  ValFormat       ....     0
 Integral Storage       Thresh          ....  2.500e-11 Eh

Convergence Tolerance:
 Convergence Check Mode ConvCheckMode   .... Total+1el-Energy
 Convergence forced     ConvForced      .... 1
 Energy Change          TolE            ....  1.000e-08 Eh
 1-El. energy change                    ....  1.000e-05 Eh
 Orbital Gradient       TolG            ....  1.000e-05
 Orbital Rotation angle TolX            ....  1.000e-05
 DIIS Error             TolErr          ....  5.000e-07


Diagonalization of the overlap matrix:
Smallest eigenvalue                        ... 1.912e-01
Time for diagonalization                   ...    0.000 sec
Threshold for overlap eigenvalues          ... 1.000e-08
Number of eigenvalues below threshold      ... 0
Time for construction of square roots      ...    0.187 sec
Total time needed                          ...    0.187 sec

--------------------------------
INITIAL GUESS: MINIMAL BASIS EHT
--------------------------------
The minimal basis has 24 functions
EHT matrix was diagonalized
Basis set overlap was calculated now projecting the orbitals
Using GuessMode=FMatrix for the initial guess
C*T matrix was formed
Effective Fockian was calculated
Effective Fockian was diagonalized
Initial density was built
                      ------------------
                      INITIAL GUESS DONE
                      ------------------

 InCore treatment chosen:
   Memory dedicated               ...    1024 MB
   Memory needed                  ...      0 MB
   Number of tiny    integrals    ...     719
   Number of small   integrals    ...    2816
   Number of regular integrals    ...   40223

--------------
SCF ITERATIONS
--------------
ITER       Energy         Delta-E        Max-DP      RMS-DP      [F,P]     Damp
  0   -189.0171516909   0.000000000000 0.14691900  0.01462303  0.3311982 0.7000
  1   -189.1290928270  -0.111941136139 0.12197371  0.01169299  0.2175127 0.7000
                               ***Turning on DIIS***
  2   -189.2003082293  -0.071215402252 0.07563871  0.00752198  0.1230019 0.7000
  3   -189.1650841227   0.035224106628 0.11779139  0.01442836  0.0889030 0.0000
  4   -189.3537468520  -0.188662729321 0.01636818  0.00177361  0.0086314 0.0000
  5   -189.3552161885  -0.001469336470 0.00808944  0.00078068  0.0051296 0.0000
                      *** Initiating the SOSCF procedure ***
                           *** Shutting down DIIS ***
                      *** Re-Reading the Fockian *** 
                      *** Removing any level shift *** 
ITER      Energy       Delta-E        Grad      Rot      Max-DP    RMS-DP
  6   -189.35671998  -0.0015037964  0.001563  0.001563  0.003195  0.000371
  7   -189.35711475  -0.0003947647  0.000522  0.000768  0.001099  0.000119
  8   -189.35711748  -0.0000027335  0.000182  0.000702  0.001085  0.000128
  9   -189.35711843  -0.0000009485  0.000082  0.000183  0.000340  0.000030
 10   -189.35711853  -0.0000001020  0.000059  0.000182  0.000358  0.000026
 11   -189.35711859  -0.0000000543  0.000028  0.000095  0.000185  0.000014
                 **** Energy Check signals convergence ****
              ***Rediagonalizing the Fockian in SOSCF/NRSCF***

               *****************************************************
               *                     SUCCESS                       *
               *           SCF CONVERGED AFTER  12 CYCLES          *
               *****************************************************


----------------
TOTAL SCF ENERGY
----------------

Total Energy       :         -189.35711860 Eh           -5152.66915 eV

Components:
Nuclear Repulsion  :          103.45733022 Eh            2815.21708 eV
Electronic Energy  :         -292.81444882 Eh           -7967.88623 eV
One Electron Energy:         -462.17701251 Eh          -12576.47589 eV
Two Electron Energy:          169.36256369 Eh            4608.58965 eV

Virial components:
Potential Energy   :         -378.37264105 Eh          -10296.04300 eV
Kinetic Energy     :          189.01552245 Eh            5143.37385 eV
Virial Ratio       :            2.00180724


---------------
SCF CONVERGENCE
---------------

  Last Energy change         ...   -9.9909e-09  Tolerance :   1.0000e-08
  Last MAX-Density change    ...    2.4877e-05  Tolerance :   1.0000e-07
  Last RMS-Density change    ...    2.9758e-06  Tolerance :   5.0000e-09
  Last Orbital Gradient      ...    1.0241e-05  Tolerance :   1.0000e-05
  Last Orbital Rotation      ...    1.2432e-05  Tolerance :   1.0000e-05

             **** THE GBW FILE WAS UPDATED (acrolien.997.gbw) ****
             **** DENSITY acrolien.997.scfp WAS UPDATED ****
             **** ENERGY FILE WAS UPDATED (acrolien.997.en.tmp) ****
             **** THE GBW FILE WAS UPDATED (acrolien.997.gbw) ****
             **** DENSITY acrolien.997.scfp WAS UPDATED ****
----------------
ORBITAL ENERGIES
----------------

  NO   OCC          E(Eh)            E(eV) 
   0   2.0000     -20.357401      -553.9530 
   1   2.0000     -11.296283      -307.3875 
   2   2.0000     -11.183601      -304.3213 
   3   2.0000     -11.179218      -304.2020 
   4   2.0000      -1.409292       -38.3488 
   5   2.0000      -1.065265       -28.9873 
   6   2.0000      -0.861432       -23.4408 
   7   2.0000      -0.711771       -19.3683 
   8   2.0000      -0.686330       -18.6760 
   9   2.0000      -0.599632       -16.3168 
  10   2.0000      -0.570287       -15.5183 
  11   2.0000      -0.545260       -14.8373 
  12   2.0000      -0.486752       -13.2452 
  13   2.0000      -0.391802       -10.6615 
  14   2.0000      -0.381618       -10.3844 
  15   0.0000       0.135130         3.6771 
  16   0.0000       0.320901         8.7322 
  17   0.0000       0.442340        12.0367 
  18   0.0000       0.505032        13.7426 
  19   0.0000       0.587697        15.9920 
  20   0.0000       0.630513        17.1571 
  21   0.0000       0.817850        22.2548 
  22   0.0000       0.897036        24.4096 
  23   0.0000       1.010648        27.5011 

                    ********************************
                    * MULLIKEN POPULATION ANALYSIS *
                    ********************************

-----------------------
MULLIKEN ATOMIC CHARGES
-----------------------
   0 C :    0.177423
   1 O :   -0.369568
   2 C :   -0.190133
   3 C :   -0.188487
   4 H :    0.120711
   5 H :    0.156166
   6 H :    0.143906
   7 H :    0.149982
Sum of atomic charges:   -0.0000000

--------------------------------
MULLIKEN REDUCED ORBITAL CHARGES
--------------------------------
  0 C s       :     3.054194  s :     3.054194
      pz      :     0.854146  p :     2.768383
      px      :     1.060990
      py      :     0.853247
  1 O s       :     3.826997  s :     3.826997
      pz      :     1.207480  p :     4.542571
      px      :     1.900275
      py      :     1.434816
  2 C s       :     3.105935  s :     3.105935
      pz      :     1.065456  p :     3.084198
      px      :     0.965251
      py      :     1.053491
  3 C s       :     3.183155  s :     3.183155
      pz      :     0.878671  p :     3.005332
      px      :     1.047752
      py      :     1.078910
  4 H s       :     0.879289  s :     0.879289
  5 H s       :     0.843834  s :     0.843834
  6 H s       :     0.856094  s :     0.856094
  7 H s       :     0.850018  s :     0.850018


                     *******************************
                     * LOEWDIN POPULATION ANALYSIS *
                     *******************************

----------------------
LOEWDIN ATOMIC CHARGES
----------------------
   0 C :    0.147832
   1 O :   -0.270904
   2 C :   -0.161828
   3 C :   -0.098061
   4 H :    0.065974
   5 H :    0.114995
   6 H :    0.094444
   7 H :    0.107547

-------------------------------
LOEWDIN REDUCED ORBITAL CHARGES
-------------------------------
  0 C s       :     2.986561  s :     2.986561
      pz      :     0.858723  p :     2.865607
      px      :     1.066394
      py      :     0.940490
  1 O s       :     3.688179  s :     3.688179
      pz      :     1.204621  p :     4.582725
      px      :     1.902742
      py      :     1.475363
  2 C s       :     3.002362  s :     3.002362
      pz      :     1.060541  p :     3.159466
      px      :     1.035167
      py      :     1.063758
  3 C s       :     3.057330  s :     3.057330
      pz      :     0.881703  p :     3.040731
      px      :     1.072937
      py      :     1.086091
  4 H s       :     0.934026  s :     0.934026
  5 H s       :     0.885005  s :     0.885005
  6 H s       :     0.905556  s :     0.905556
  7 H s       :     0.892453  s :     0.892453


                      *****************************
                      * MAYER POPULATION ANALYSIS *
                      *****************************

  NA   - Mulliken gross atomic population
  ZA   - Total nuclear charge
  QA   - Mulliken gross atomic charge
  VA   - Mayer's total valence
  BVA  - Mayer's bonded valence
  FA   - Mayer's free valence

  ATOM       NA         ZA         QA         VA         BVA        FA
  0 C      5.8226     6.0000     0.1774     3.8729     3.8729    -0.0000
  1 O      8.3696     8.0000    -0.3696     2.0722     2.0722    -0.0000
  2 C      6.1901     6.0000    -0.1901     3.9653     3.9653    -0.0000
  3 C      6.1885     6.0000    -0.1885     3.9276     3.9276    -0.0000
  4 H      0.8793     1.0000     0.1207     0.9854     0.9854    -0.0000
  5 H      0.8438     1.0000     0.1562     0.9756     0.9756     0.0000
  6 H      0.8561     1.0000     0.1439     0.9793     0.9793    -0.0000
  7 H      0.8500     1.0000     0.1500     0.9775     0.9775    -0.0000

  Mayer bond orders larger than 0.100000
B(  0-C ,  1-O ) :   1.8950 B(  0-C ,  2-C ) :   1.0426 B(  0-C ,  4-H ) :   0.9133 
B(  2-C ,  3-C ) :   1.9181 B(  2-C ,  5-H ) :   0.9504 B(  3-C ,  6-H ) :   0.9594 
B(  3-C ,  7-H ) :   0.9604 

-------
TIMINGS
-------

Total SCF time: 0 days 0 hours 0 min 4 sec 

Total time                  ....       4.448 sec
Sum of individual times     ....       0.706 sec  ( 15.9%)

Fock matrix formation       ....       0.088 sec  (  2.0%)
Diagonalization             ....       0.001 sec  (  0.0%)
Density matrix formation    ....       0.000 sec  (  0.0%)
Population analysis         ....       0.603 sec  ( 13.6%)
Initial guess               ....       0.002 sec  (  0.0%)
Orbital Transformation      ....       0.000 sec  (  0.0%)
Orbital Orthonormalization  ....       0.000 sec  (  0.0%)
DIIS solution               ....       0.001 sec  (  0.0%)
SOSCF solution              ....       0.009 sec  (  0.2%)

Maximum memory used throughout the entire SCF-calculation: 225.0 MB
------------------------------------------------------------------------------
                         ORCA CIS CALCULATION
------------------------------------------------------------------------------

Input orbitals are from        ... acrolien.997.gbw
CI-vector output               ... acrolien.997.cis
Tamm-Dancoff approximation     ... operative
CIS-Integral strategy          ... AO-integrals
Integral handling              ... AO integral Conventional
Reference state                ... RHF
Generation of triplets         ... off
Follow IRoot                   ... off
Number of operators            ... 1
Orbital ranges used for CIS calculation:
 Operator 0:  Orbitals   4... 14  to  15... 23
XAS localization array:
 Operator 0:  Orbitals  -1... -1

------------------------
DAVIDSON-DIAGONALIZATION
------------------------

Dimension of the eigenvalue problem            ...     99
Number of roots to be determined               ...      1
Maximum size of the expansion space            ...     10
Maximum number of iterations                   ...    100
Convergence tolerance for the residual         ...    2.500e-07
Convergence tolerance for the energies         ...    2.500e-07
Orthogonality tolerance                        ...    1.000e-14
Level Shift                                    ...    0.000e+00
Constructing the preconditioner                ... o.k.
Building the initial guess                     ... o.k.
Number of trial vectors determined             ...     10


                       ****Iteration    0****

   Memory handling for direct AO based CIS:
   Memory per vector needed      ...     1 MB
   Memory needed                 ...     0 MB
   Memory available              ...   512 MB
   Number of vectors per batch   ...   512
   Number of batches             ...     1
   Time for densities:            0.000
   SHARK[4]
   Time for Sigma-Completion:     0.001
   Size of expansion space: 3
   Lowest Energy          :     0.211540664564
   Maximum Energy change  :     0.211540664564 (vector 0)
   Maximum residual norm  :     0.014742824517

                       ****Iteration    1****
   Time for densities:            0.000
   SHARK[4]
   Time for Sigma-Completion:     0.000
   Size of expansion space: 4
   Lowest Energy          :     0.153997120815
   Maximum Energy change  :     0.057543543749 (vector 0)
   Maximum residual norm  :     0.001197629537

                       ****Iteration    2****
   Time for densities:            0.000
   SHARK[4]
   Time for Sigma-Completion:     0.000
   Size of expansion space: 5
   Lowest Energy          :     0.150660296673
   Maximum Energy change  :     0.003336824142 (vector 0)
   Maximum residual norm  :     0.000116170284

                       ****Iteration    3****
   Time for densities:            0.000
   SHARK[4]
   Time for Sigma-Completion:     0.000
   Size of expansion space: 6
   Lowest Energy          :     0.150441292073
   Maximum Energy change  :     0.000219004599 (vector 0)
   Maximum residual norm  :     0.000015682846

                       ****Iteration    4****
   Time for densities:            0.000
   SHARK[4]
   Time for Sigma-Completion:     0.000
   Size of expansion space: 7
   Lowest Energy          :     0.150419262114
   Maximum Energy change  :     0.000022029960 (vector 0)
   Maximum residual norm  :     0.000001320555

                       ****Iteration    5****
   Time for densities:            0.000
   SHARK[4]
   Time for Sigma-Completion:     0.000
   Size of expansion space: 8
   Lowest Energy          :     0.150417139147
   Maximum Energy change  :     0.000002122967 (vector 0)
   Maximum residual norm  :     0.000000081819

      *** CONVERGENCE OF RESIDUAL NORM REACHED ***

Storing the converged CI vectors               ... acrolien.997.cis1

                 *** DAVIDSON DONE ***

Total time for solving the CIS problem:     1.677sec

-----------------------------
CIS-EXCITED STATES (SINGLETS)
-----------------------------

the weight of the individual excitations are printed if larger than 1.0e-02

STATE  1:  E=   0.150417 au      4.093 eV    33012.7 cm**-1 <S**2> =   0.000000
    10a ->  15a  :     0.013433 (c= -0.11590100)
    13a ->  15a  :     0.774494 (c=  0.88005344)
    13a ->  16a  :     0.174549 (c= -0.41779042)


----------------------
CIS-EXCITATION SPECTRA
----------------------

Center of mass = (  0.5777, -0.9101, -0.0005)
Calculating the Dipole integrals                  ... done
Transforming integrals                            ... done
Calculating the Linear Momentum integrals         ... done
Transforming integrals                            ... done
Calculating angular momentum integrals            ... done
Transforming integrals                            ... done

-----------------------------------------------------------------------------
         ABSORPTION SPECTRUM VIA TRANSITION ELECTRIC DIPOLE MOMENTS
-----------------------------------------------------------------------------
State   Energy    Wavelength  fosc         T2        TX        TY        TZ  
        (cm-1)      (nm)                 (au**2)    (au)      (au)      (au) 
-----------------------------------------------------------------------------
   1   33012.7    302.9   0.000057246   0.00057  -0.00513   0.00008   0.02334

-----------------------------------------------------------------------------
         ABSORPTION SPECTRUM VIA TRANSITION VELOCITY DIPOLE MOMENTS
-----------------------------------------------------------------------------
State   Energy    Wavelength   fosc        P2         PX        PY        PZ  
        (cm-1)      (nm)                 (au**2)     (au)      (au)      (au) 
-----------------------------------------------------------------------------
   1   33012.7    302.9   0.000632586   0.00014   0.00053   0.00164  -0.01182

-------------------------------------------------------------------
                             CD SPECTRUM
-------------------------------------------------------------------
State  Energy     Wavelength     R         MX        MY        MZ   
       (cm-1)       (nm)     (1e40*cgs)   (au)      (au)      (au)  
-------------------------------------------------------------------
   1   33012.7    302.9      0.21672   0.08472   0.46634   0.03666

-------------------------------------------------------------------
         CD SPECTRUM VIA TRANSITION VELOCITY DIPOLE MOMENTS        
-------------------------------------------------------------------
State  Energy     Wavelength     R         MX        MY        MZ   
       (cm-1)       (nm)     (1e40*cgs)   (au)      (au)      (au)  
-------------------------------------------------------------------
   1   33012.7    302.9      1.17742   0.08472   0.46634   0.03666

Total run time:        2.878 sec

           *** ORCA-CIS/TD-DFT FINISHED WITHOUT ERROR ***

Maximum memory used throughout the entire CIS-calculation: 51.7 MB

-----------------------
CIS/TD-DFT TOTAL ENERGY
-----------------------

    E(SCF)  =   -189.357118598 Eh
    DE(CIS) =      0.150417139 Eh (Root  1)
    ----------------------------- ---------
    E(tot)  =   -189.206701459 Eh



-------------------------------------------------------------------------------
                          DFT DISPERSION CORRECTION                            
                                                                               
                              DFTD3 V3.1  Rev 1                                
                          USING Becke-Johnson damping                          
-------------------------------------------------------------------------------
Hartree-Fock is recognized
Active option DFTDOPT                   ...         4   

molecular C6(AA) [au] = 663.848617 


            DFT-D V3
 parameters
 using HF/MINIX parameters
 s6 scaling factor         :     1.0000 
 a1 scaling factor         :     0.4171 
 s8 scaling factor         :     0.8777 
 a2 scaling factor         :     2.9149 
 ad hoc parameters k1-k3   :    16.0000     1.3333    -4.0000 

 Edisp/kcal,au: -15.779768416305  -0.025146658951 
 E6   /kcal   :  -8.721474930 
 E8   /kcal   :  -7.058293486 
 % E8         :  44.730019478 

-------------------------   ----------------
Dispersion correction           -0.025146659
-------------------------   ----------------

------------------   -----------------
gCP+bas correction        -0.051439795
------------------   -----------------
----------------------------   ----------------
Total correction to HF/MINIX       -0.076586454
----------------------------   ----------------


-------------------------   --------------------
FINAL SINGLE POINT ENERGY      -189.283287913065
-------------------------   --------------------


                            ***************************************
                            *     ORCA property calculations      *
                            ***************************************

                                    ---------------------
                                    Active property flags
                                    ---------------------
   (+) Dipole Moment


------------------------------------------------------------------------------
                       ORCA ELECTRIC PROPERTIES CALCULATION
------------------------------------------------------------------------------

Dipole Moment Calculation                       ... on
Quadrupole Moment Calculation                   ... off
Polarizability Calculation                      ... off
GBWName                                         ... acrolien.997.gbw
Electron density                                ... acrolien.997.scfp
The origin for moment calculation is the CENTER OF MASS  = ( 0.577738, -0.910130 -0.000521)

-------------
DIPOLE MOMENT
-------------
                                X             Y             Z
Electronic contribution:     -1.87617      -1.63220      -0.03092
Nuclear contribution   :      2.45819       2.63927       0.06052
                        -----------------------------------------
Total Dipole Moment    :      0.58202       1.00708       0.02960
                        -----------------------------------------
Magnitude (a.u.)       :      1.16354
Magnitude (Debye)      :      2.95749



--------------------
Rotational spectrum 
--------------------
 
Rotational constants in cm-1:     0.782693     0.200791     0.160168 
Rotational constants in MHz : 23464.537867  6019.577707  4801.709962 

 Dipole components along the rotational axes: 
x,y,z [a.u.] :     1.039972    -0.520892     0.031023 
x,y,z [Debye]:     2.643398    -1.324002     0.078854 

 

Timings for individual modules:

Sum of individual times         ...        9.794 sec (=   0.163 min)
GTO integral calculation        ...        1.429 sec (=   0.024 min)  14.6 %
SCF iterations                  ...        5.003 sec (=   0.083 min)  51.1 %
CIS module                      ...        3.362 sec (=   0.056 min)  34.3 %
                             ****ORCA TERMINATED NORMALLY****
TOTAL RUN TIME: 0 days 0 hours 0 minutes 11 seconds 462 msec
