
                                 *****************
                                 * O   R   C   A *
                                 *****************

                                            #,                                       
                                            ###                                      
                                            ####                                     
                                            #####                                    
                                            ######                                   
                                           ########,                                 
                                     ,,################,,,,,                         
                               ,,#################################,,                 
                          ,,##########################################,,             
                       ,#########################################, ''#####,          
                    ,#############################################,,   '####,        
                  ,##################################################,,,,####,       
                ,###########''''           ''''###############################       
              ,#####''   ,,,,##########,,,,          '''####'''          '####       
            ,##' ,,,,###########################,,,                        '##       
           ' ,,###''''                  '''############,,,                           
         ,,##''                                '''############,,,,        ,,,,,,###''
      ,#''                                            '''#######################'''  
     '                                                          ''''####''''         
             ,#######,   #######,   ,#######,      ##                                
            ,#'     '#,  ##    ##  ,#'     '#,    #''#        ######   ,####,        
            ##       ##  ##   ,#'  ##            #'  '#       #        #'  '#        
            ##       ##  #######   ##           ,######,      #####,   #    #        
            '#,     ,#'  ##    ##  '#,     ,#' ,#      #,         ##   #,  ,#        
             '#######'   ##     ##  '#######'  #'      '#     #####' # '####'        



                  #######################################################
                  #                        -***-                        #
                  #          Department of theory and spectroscopy      #
                  #    Directorship and core code : Frank Neese         #
                  #        Max Planck Institute fuer Kohlenforschung    #
                  #                Kaiser Wilhelm Platz 1               #
                  #                 D-45470 Muelheim/Ruhr               #
                  #                      Germany                        #
                  #                                                     #
                  #                  All rights reserved                #
                  #                        -***-                        #
                  #######################################################


                         Program Version 5.0.3 -  RELEASE  -


 With contributions from (in alphabetic order):
   Daniel Aravena         : Magnetic Suceptibility
   Michael Atanasov       : Ab Initio Ligand Field Theory (pilot matlab implementation)
   Alexander A. Auer      : GIAO ZORA, VPT2 properties, NMR spectrum
   Ute Becker             : Parallelization
   Giovanni Bistoni       : ED, misc. LED, open-shell LED, HFLD
   Martin Brehm           : Molecular dynamics
   Dmytro Bykov           : SCF Hessian
   Vijay G. Chilkuri      : MRCI spin determinant printing, contributions to CSF-ICE
   Dipayan Datta          : RHF DLPNO-CCSD density
   Achintya Kumar Dutta   : EOM-CC, STEOM-CC
   Dmitry Ganyushin       : Spin-Orbit,Spin-Spin,Magnetic field MRCI
   Miquel Garcia          : C-PCM and meta-GGA Hessian, CC/C-PCM, Gaussian charge scheme
   Yang Guo               : DLPNO-NEVPT2, F12-NEVPT2, CIM, IAO-localization
   Andreas Hansen         : Spin unrestricted coupled pair/coupled cluster methods
   Benjamin Helmich-Paris : MC-RPA, TRAH-SCF, COSX integrals
   Lee Huntington         : MR-EOM, pCC
   Robert Izsak           : Overlap fitted RIJCOSX, COSX-SCS-MP3, EOM
   Marcus Kettner         : VPT2
   Christian Kollmar      : KDIIS, OOCD, Brueckner-CCSD(T), CCSD density, CASPT2, CASPT2-K
   Simone Kossmann        : Meta GGA functionals, TD-DFT gradient, OOMP2, MP2 Hessian
   Martin Krupicka        : Initial AUTO-CI
   Lucas Lang             : DCDCAS
   Marvin Lechner         : AUTO-CI (C++ implementation), FIC-MRCC
   Dagmar Lenk            : GEPOL surface, SMD
   Dimitrios Liakos       : Extrapolation schemes; Compound Job, initial MDCI parallelization
   Dimitrios Manganas     : Further ROCIS development; embedding schemes
   Dimitrios Pantazis     : SARC Basis sets
   Anastasios Papadopoulos: AUTO-CI, single reference methods and gradients
   Taras Petrenko         : DFT Hessian,TD-DFT gradient, ASA, ECA, R-Raman, ABS, FL, XAS/XES, NRVS
   Peter Pinski           : DLPNO-MP2, DLPNO-MP2 Gradient
   Christoph Reimann      : Effective Core Potentials
   Marius Retegan         : Local ZFS, SOC
   Christoph Riplinger    : Optimizer, TS searches, QM/MM, DLPNO-CCSD(T), (RO)-DLPNO pert. Triples
   Tobias Risthaus        : Range-separated hybrids, TD-DFT gradient, RPA, STAB
   Michael Roemelt        : Original ROCIS implementation
   Masaaki Saitow         : Open-shell DLPNO-CCSD energy and density
   Barbara Sandhoefer     : DKH picture change effects
   Avijit Sen             : IP-ROCIS
   Kantharuban Sivalingam : CASSCF convergence, NEVPT2, FIC-MRCI
   Bernardo de Souza      : ESD, SOC TD-DFT
   Georgi Stoychev        : AutoAux, RI-MP2 NMR, DLPNO-MP2 response
   Willem Van den Heuvel  : Paramagnetic NMR
   Boris Wezisla          : Elementary symmetry handling
   Frank Wennmohs         : Technical directorship


 We gratefully acknowledge several colleagues who have allowed us to
 interface, adapt or use parts of their codes:
   Stefan Grimme, W. Hujo, H. Kruse, P. Pracht,  : VdW corrections, initial TS optimization,
                  C. Bannwarth, S. Ehlert          DFT functionals, gCP, sTDA/sTD-DF
   Ed Valeev, F. Pavosevic, A. Kumar             : LibInt (2-el integral package), F12 methods
   Garnet Chan, S. Sharma, J. Yang, R. Olivares  : DMRG
   Ulf Ekstrom                                   : XCFun DFT Library
   Mihaly Kallay                                 : mrcc  (arbitrary order and MRCC methods)
   Jiri Pittner, Ondrej Demel                    : Mk-CCSD
   Frank Weinhold                                : gennbo (NPA and NBO analysis)
   Christopher J. Cramer and Donald G. Truhlar   : smd solvation model
   Lars Goerigk                                  : TD-DFT with DH, B97 family of functionals
   V. Asgeirsson, H. Jonsson                     : NEB implementation
   FAccTs GmbH                                   : IRC, NEB, NEB-TS, DLPNO-Multilevel, CI-OPT
                                                   MM, QMMM, 2- and 3-layer-ONIOM, Crystal-QMMM,
                                                   LR-CPCM, SF, NACMEs, symmetry and pop. for TD-DFT,
                                                   nearIR, NL-DFT gradient (VV10), updates on ESD,
                                                   ML-optimized integration grids
   S Lehtola, MJT Oliveira, MAL Marques          : LibXC Library
   Liviu Ungur et al                             : ANISO software


 Your calculation uses the libint2 library for the computation of 2-el integrals
 For citations please refer to: http://libint.valeyev.net

 Your ORCA version has been built with support for libXC version: 5.1.0
 For citations please refer to: https://tddft.org/programs/libxc/

 This ORCA versions uses:
   CBLAS   interface :  Fast vector & matrix operations
   LAPACKE interface :  Fast linear algebra routines
   SCALAPACK package :  Parallel linear algebra routines
   Shared memory     :  Shared parallel matrices
   BLAS/LAPACK       :  OpenBLAS 0.3.15  USE64BITINT DYNAMIC_ARCH NO_AFFINITY Haswell SINGLE_THREADED
        Core in use  :  Haswell
   Copyright (c) 2011-2014, The OpenBLAS Project


Your calculation utilizes the geometrical counterpoise correction gCP
Please cite in your paper:
H.Kruse, S. Grimme J.Chem.Phys., 136, (2012), 154101 
   

Your calculation utilizes the atom-pairwise dispersion correction
with the Becke-Johnson damping scheme (D3BJ)
Cite in your paper:
S.Grimme, S.Ehrlich, L.Goerigk, J Comput Chem, (2011), 32, 1456–1465 
S.Grimme, J.Antony, S.Ehrlich and H.Krieg, J.Chem.Phys., 132, (2010), 154104 
   

================================================================================

----- Orbital basis set information -----
Your calculation utilizes the basis: MINIX,
   a combination of small basis sets by S. Grimme (see manual for definitions).

================================================================================
                                        WARNINGS
                       Please study these warnings very carefully!
================================================================================

INFO   : Checking CIS options ...

INFO   : the flag for use of the SHARK integral package has been found!

================================================================================
                                       INPUT FILE
================================================================================
NAME = acrolien.1147.com
|  1> ! HF-3c
|  2> !TightSCF
|  3> %scf
|  4>  ConvForced true
|  5>  convergence tight
|  6>  MaxIter 500
|  7> end
|  8>  
|  9> %tddft 
| 10>  nroots 1
| 11> end
| 12> 
| 13> # 	2703
| 14> * xyz 0 1
| 15> 		C   -1.156435  -0.306909  -0.030865
| 16> 		O   -1.298615  -1.451061   0.451468
| 17> 		C   -0.010511   0.570387   0.144762
| 18> 		C    1.180238  -0.078288  -0.057199
| 19> 		H   -1.998383   0.146780  -0.605322
| 20> 		H   -0.171973   1.658751   0.506178
| 21> 		H    1.241281  -1.129618  -0.431052
| 22> 		H    2.202769   0.567476  -0.010985
| 23> *
| 24> 
| 25>                          ****END OF INPUT****
================================================================================

                       ****************************
                       * Single Point Calculation *
                       ****************************

---------------------------------
CARTESIAN COORDINATES (ANGSTROEM)
---------------------------------
  C     -1.156435   -0.306909   -0.030865
  O     -1.298615   -1.451061    0.451468
  C     -0.010511    0.570387    0.144762
  C      1.180238   -0.078288   -0.057199
  H     -1.998383    0.146780   -0.605322
  H     -0.171973    1.658751    0.506178
  H      1.241281   -1.129618   -0.431052
  H      2.202769    0.567476   -0.010985

----------------------------
CARTESIAN COORDINATES (A.U.)
----------------------------
  NO LB      ZA    FRAG     MASS         X           Y           Z
   0 C     6.0000    0    12.011   -2.185345   -0.579974   -0.058326
   1 O     8.0000    0    15.999   -2.454027   -2.742108    0.853151
   2 C     6.0000    0    12.011   -0.019863    1.077875    0.273561
   3 C     6.0000    0    12.011    2.230327   -0.147943   -0.108090
   4 H     1.0000    0     1.008   -3.776397    0.277374   -1.143893
   5 H     1.0000    0     1.008   -0.324982    3.134585    0.956538
   6 H     1.0000    0     1.008    2.345681   -2.134669   -0.814570
   7 H     1.0000    0     1.008    4.162630    1.072374   -0.020759

--------------------------------
INTERNAL COORDINATES (ANGSTROEM)
--------------------------------
 C      0   0   0     0.000000000000     0.00000000     0.00000000
 O      1   0   0     1.249777609974     0.00000000     0.00000000
 C      1   2   0     1.453834560231   126.54715312     0.00000000
 C      3   1   2     1.370930589836   112.41381574    47.20454348
 H      1   2   3     1.115666163453   119.02226058   184.26969372
 H      3   1   2     1.158113854073   119.66325584   232.04615502
 H      4   3   1     1.117491423841   122.81172046     6.68344825
 H      4   3   1     1.210254734943   118.40822345   175.98924287

---------------------------
INTERNAL COORDINATES (A.U.)
---------------------------
 C      0   0   0     0.000000000000     0.00000000     0.00000000
 O      1   0   0     2.361737411158     0.00000000     0.00000000
 C      1   2   0     2.747349162866   126.54715312     0.00000000
 C      3   1   2     2.590683363404   112.41381574    47.20454348
 H      1   2   3     2.108303505809   119.02226058   184.26969372
 H      3   1   2     2.188518016098   119.66325584   232.04615502
 H      4   3   1     2.111752748065   122.81172046     6.68344825
 H      4   3   1     2.287050001325   118.40822345   175.98924287

---------------------
BASIS SET INFORMATION
---------------------
There are 3 groups of distinct atoms

 Group   1 Type C   : 6s3p contracted to 2s1p pattern {33/3}
 Group   2 Type O   : 6s3p contracted to 2s1p pattern {33/3}
 Group   3 Type H   : 3s contracted to 1s pattern {3}

Atom   0C    basis set group =>   1
Atom   1O    basis set group =>   2
Atom   2C    basis set group =>   1
Atom   3C    basis set group =>   1
Atom   4H    basis set group =>   3
Atom   5H    basis set group =>   3
Atom   6H    basis set group =>   3
Atom   7H    basis set group =>   3
------------------------------------------------------------------------------
                           ORCA GTO INTEGRAL CALCULATION
------------------------------------------------------------------------------
------------------------------------------------------------------------------
                   ___                                                        
                  /   \      - P O W E R E D   B Y -                         
                 /     \                                                     
                 |  |  |   _    _      __       _____    __    __             
                 |  |  |  | |  | |    /  \     |  _  \  |  |  /  |          
                  \  \/   | |  | |   /    \    | | | |  |  | /  /          
                 / \  \   | |__| |  /  /\  \   | |_| |  |  |/  /          
                |  |  |   |  __  | /  /__\  \  |    /   |      \           
                |  |  |   | |  | | |   __   |  |    \   |  |\   \          
                \     /   | |  | | |  |  |  |  | |\  \  |  | \   \       
                 \___/    |_|  |_| |__|  |__|  |_| \__\ |__|  \__/        
                                                                              
                      - O R C A' S   B I G   F R I E N D -                    
                                      &                                       
                       - I N T E G R A L  F E E D E R -                       
                                                                              
 v1 FN, 2020, v2 2021                                                         
------------------------------------------------------------------------------


Reading SHARK input file acrolien.1147.SHARKINP.tmp ... ok
----------------------
SHARK INTEGRAL PACKAGE
----------------------

Number of atoms                             ...      8
Number of basis functions                   ...     24
Number of shells                            ...     16
Maximum angular momentum                    ...      1
Integral batch strategy                     ... SHARK/LIBINT Hybrid
RI-J (if used) integral strategy            ... SPLIT-RIJ (Revised 2003 algorithm where possible)
Printlevel                                  ...      1
Contraction scheme used                     ... SEGMENTED contraction
Coulomb Range Separation                    ... NOT USED
Exchange Range Separation                   ... NOT USED
Finite Nucleus Model                        ... NOT USED
Auxiliary Coulomb fitting basis             ... NOT available
Auxiliary J/K fitting basis                 ... NOT available
Auxiliary Correlation fitting basis         ... NOT available
Auxiliary 'external' fitting basis          ... NOT available
Integral threshold                          ...     2.500000e-11
Primitive cut-off                           ...     2.500000e-12
Primitive pair pre-selection threshold      ...     2.500000e-12

Calculating pre-screening integrals         ... done (  0.0 sec) Dimension = 16
Organizing shell pair data                  ... done (  0.0 sec)
Shell pair information
Total number of shell pairs                 ...       136
Shell pairs after pre-screening             ...       133
Total number of primitive shell pairs       ...      1224
Primitive shell pairs kept                  ...       997
          la=0 lb=0:     75 shell pairs
          la=1 lb=0:     48 shell pairs
          la=1 lb=1:     10 shell pairs

Calculating one electron integrals          ... done (  0.0 sec)
Calculating Nuclear repulsion               ... done (  0.0 sec) ENN=    103.168527093114 Eh
Calculating 4-index integrals               ... 
    -> SHARK/Ints2Disk: Thresh =     2.500000e-11 TCut=    2.500000e-12 
    -> calling libint FockFlag=2 Lmax_loc=1
    ->Total LIBINT loop time =    0.000 sec
    -> L=0 0 0 0:     0.003 sec done=      2822 (=100.0%) skipped=         0 
    -> L=1 0 0 0:     0.007 sec done=      3595 (=100.0%) skipped=         0 
    -> L=1 0 1 0:     0.004 sec done=      1176 (=100.0%) skipped=         0 
    -> L=1 1 0 0:     0.003 sec done=       750 (=100.0%) skipped=         0 
    -> L=1 1 1 0:     0.004 sec done=       480 (=100.0%) skipped=         0 
    -> L=1 1 1 1:     0.001 sec done=        55 (=100.0%) skipped=         0 
    ->Total SHARK integral loop time =    0.063 sec
    -> Total Integral generation matrix time =    0.621 sec
    -> Number of small integrals   =       614
    -> Number of medium integrals  =      1613
    -> Number of large integrals   =     41575
    -> Number of MB stored         =         0 MB


SHARK setup successfully completed in   2.3 seconds

Maximum memory used throughout the entire GTOINT-calculation: 29.5 MB
-------------------------------------------------------------------------------
                                 ORCA SCF
-------------------------------------------------------------------------------

------------
SCF SETTINGS
------------
Hamiltonian:
 Ab initio Hamiltonian  Method          .... Hartree-Fock(GTOs)


General Settings:
 Integral files         IntName         .... acrolien.1147
 Hartree-Fock type      HFTyp           .... RHF
 Total Charge           Charge          ....    0
 Multiplicity           Mult            ....    1
 Number of Electrons    NEL             ....   30
 Basis Dimension        Dim             ....   24
 Nuclear Repulsion      ENuc            ....    103.1685270931 Eh

Convergence Acceleration:
 DIIS                   CNVDIIS         .... on
   Start iteration      DIISMaxIt       ....    12
   Startup error        DIISStart       ....  0.200000
   # of expansion vecs  DIISMaxEq       ....     5
   Bias factor          DIISBfac        ....   1.050
   Max. coefficient     DIISMaxC        ....  10.000
 Trust-Rad. Augm. Hess. CNVTRAH         .... auto
   Auto Start mean grad. ratio tolernc. ....  1.125000
   Auto Start start iteration           ....    20
   Auto Start num. interpolation iter.  ....    10
   Max. Number of Micro iterations      ....    16
   Max. Number of Macro iterations      .... Maxiter - #DIIS iter
   Number of Davidson start vectors     ....     2
   Converg. threshold I  (grad. norm)   ....   1.000e-05
   Converg. threshold II (energy diff.) ....   1.000e-08
   Grad. Scal. Fac. for Micro threshold ....   0.100
   Minimum threshold for Micro iter.    ....   0.010
   NR start threshold (gradient norm)   ....   0.001
   Initial trust radius                 ....   0.400
   Minimum AH scaling param. (alpha)    ....   1.000
   Maximum AH scaling param. (alpha)    .... 1000.000
   Orbital update algorithm             .... Taylor
   White noise on init. David. guess    .... on
   Maximum white noise                  ....   0.010
   Quad. conv. algorithm                .... NR
 SOSCF                  CNVSOSCF        .... on
   Start iteration      SOSCFMaxIt      ....   150
   Startup grad/error   SOSCFStart      ....  0.003300
 Level Shifting         CNVShift        .... on
   Level shift para.    LevelShift      ....    0.2500
   Turn off err/grad.   ShiftErr        ....    0.0010
 Zerner damping         CNVZerner       .... off
 Static damping         CNVDamp         .... on
   Fraction old density DampFac         ....    0.7000
   Max. Damping (<1)    DampMax         ....    0.9800
   Min. Damping (>=0)   DampMin         ....    0.0000
   Turn off err/grad.   DampErr         ....    0.1000
 Fernandez-Rico         CNVRico         .... off

SCF Procedure:
 Maximum # iterations   MaxIter         ....   500
 SCF integral mode      SCFMode         .... Conventional
 Integral Threshold     Thresh          ....  2.500e-11 Eh
 Primitive CutOff       TCut            ....  2.500e-12 Eh
 Integral Buffer length BufferLength    .... 1048576
 Integral index format  IndFormat       ....     0
 Integral value format  ValFormat       ....     0
 Integral Storage       Thresh          ....  2.500e-11 Eh

Convergence Tolerance:
 Convergence Check Mode ConvCheckMode   .... Total+1el-Energy
 Convergence forced     ConvForced      .... 1
 Energy Change          TolE            ....  1.000e-08 Eh
 1-El. energy change                    ....  1.000e-05 Eh
 Orbital Gradient       TolG            ....  1.000e-05
 Orbital Rotation angle TolX            ....  1.000e-05
 DIIS Error             TolErr          ....  5.000e-07


Diagonalization of the overlap matrix:
Smallest eigenvalue                        ... 1.969e-01
Time for diagonalization                   ...    0.000 sec
Threshold for overlap eigenvalues          ... 1.000e-08
Number of eigenvalues below threshold      ... 0
Time for construction of square roots      ...    0.148 sec
Total time needed                          ...    0.148 sec

--------------------------------
INITIAL GUESS: MINIMAL BASIS EHT
--------------------------------
The minimal basis has 24 functions
EHT matrix was diagonalized
Basis set overlap was calculated now projecting the orbitals
Using GuessMode=FMatrix for the initial guess
C*T matrix was formed
Effective Fockian was calculated
Effective Fockian was diagonalized
Initial density was built
                      ------------------
                      INITIAL GUESS DONE
                      ------------------

 InCore treatment chosen:
   Memory dedicated               ...    1024 MB
   Memory needed                  ...      0 MB
   Number of tiny    integrals    ...     614
   Number of small   integrals    ...    1613
   Number of regular integrals    ...   41575

--------------
SCF ITERATIONS
--------------
ITER       Energy         Delta-E        Max-DP      RMS-DP      [F,P]     Damp
  0   -189.0459213015   0.000000000000 0.15662936  0.01555119  0.2352298 0.7000
  1   -189.1667947664  -0.120873464935 0.12146619  0.01227756  0.1561589 0.7000
                               ***Turning on DIIS***
  2   -189.2407873406  -0.073992574200 0.07471414  0.00763886  0.1105079 0.7000
  3   -189.2586514895  -0.017864148900 0.11682137  0.01361501  0.0800333 0.0000
  4   -189.3972448082  -0.138593318712 0.01572500  0.00177440  0.0092607 0.0000
  5   -189.3974332923  -0.000188484099 0.00685703  0.00078810  0.0047079 0.0000
                      *** Initiating the SOSCF procedure ***
                           *** Shutting down DIIS ***
                      *** Re-Reading the Fockian *** 
                      *** Removing any level shift *** 
ITER      Energy       Delta-E        Grad      Rot      Max-DP    RMS-DP
  6   -189.39739196   0.0000413326  0.001314  0.001314  0.002901  0.000424
  7   -189.39910623  -0.0017142700  0.000405  0.000634  0.001300  0.000149
  8   -189.39911056  -0.0000043352  0.000201  0.000795  0.001127  0.000188
  9   -189.39911236  -0.0000017970  0.000077  0.000125  0.000243  0.000029
 10   -189.39911247  -0.0000001106  0.000040  0.000107  0.000188  0.000018
 11   -189.39911251  -0.0000000394  0.000025  0.000134  0.000207  0.000020
 12   -189.39911253  -0.0000000157  0.000015  0.000025  0.000052  0.000005
 13   -189.39911253  -0.0000000019  0.000005  0.000014  0.000021  0.000003
                 **** Energy Check signals convergence ****
              ***Rediagonalizing the Fockian in SOSCF/NRSCF***

               *****************************************************
               *                     SUCCESS                       *
               *           SCF CONVERGED AFTER  14 CYCLES          *
               *****************************************************


----------------
TOTAL SCF ENERGY
----------------

Total Energy       :         -189.39911253 Eh           -5153.81187 eV

Components:
Nuclear Repulsion  :          103.16852709 Eh            2807.35835 eV
Electronic Energy  :         -292.56763962 Eh           -7961.17021 eV
One Electron Energy:         -461.75512925 Eh          -12564.99586 eV
Two Electron Energy:          169.18748962 Eh            4603.82565 eV

Virial components:
Potential Energy   :         -378.37179935 Eh          -10296.02010 eV
Kinetic Energy     :          188.97268682 Eh            5142.20823 eV
Virial Ratio       :            2.00225655


---------------
SCF CONVERGENCE
---------------

  Last Energy change         ...   -6.0044e-10  Tolerance :   1.0000e-08
  Last MAX-Density change    ...    4.9890e-06  Tolerance :   1.0000e-07
  Last RMS-Density change    ...    6.7932e-07  Tolerance :   5.0000e-09
  Last Orbital Gradient      ...    1.3269e-06  Tolerance :   1.0000e-05
  Last Orbital Rotation      ...    4.1688e-06  Tolerance :   1.0000e-05

             **** THE GBW FILE WAS UPDATED (acrolien.1147.gbw) ****
             **** DENSITY acrolien.1147.scfp WAS UPDATED ****
             **** ENERGY FILE WAS UPDATED (acrolien.1147.en.tmp) ****
             **** THE GBW FILE WAS UPDATED (acrolien.1147.gbw) ****
             **** DENSITY acrolien.1147.scfp WAS UPDATED ****
----------------
ORBITAL ENERGIES
----------------

  NO   OCC          E(Eh)            E(eV) 
   0   2.0000     -20.346937      -553.6683 
   1   2.0000     -11.279903      -306.9418 
   2   2.0000     -11.183902      -304.3294 
   3   2.0000     -11.182204      -304.2832 
   4   2.0000      -1.367116       -37.2011 
   5   2.0000      -1.066319       -29.0160 
   6   2.0000      -0.873638       -23.7729 
   7   2.0000      -0.732719       -19.9383 
   8   2.0000      -0.677715       -18.4416 
   9   2.0000      -0.596091       -16.2205 
  10   2.0000      -0.582896       -15.8614 
  11   2.0000      -0.523820       -14.2539 
  12   2.0000      -0.491679       -13.3793 
  13   2.0000      -0.405147       -11.0246 
  14   2.0000      -0.379986       -10.3399 
  15   0.0000       0.147393         4.0108 
  16   0.0000       0.256040         6.9672 
  17   0.0000       0.522710        14.2237 
  18   0.0000       0.563545        15.3348 
  19   0.0000       0.600601        16.3432 
  20   0.0000       0.683365        18.5953 
  21   0.0000       0.796475        21.6732 
  22   0.0000       0.869136        23.6504 
  23   0.0000       0.930782        25.3279 

                    ********************************
                    * MULLIKEN POPULATION ANALYSIS *
                    ********************************

-----------------------
MULLIKEN ATOMIC CHARGES
-----------------------
   0 C :    0.152973
   1 O :   -0.350956
   2 C :   -0.183033
   3 C :   -0.196092
   4 H :    0.130339
   5 H :    0.155773
   6 H :    0.151661
   7 H :    0.139335
Sum of atomic charges:    0.0000000

--------------------------------
MULLIKEN REDUCED ORBITAL CHARGES
--------------------------------
  0 C s       :     3.073429  s :     3.073429
      pz      :     0.894536  p :     2.773599
      px      :     1.020273
      py      :     0.858789
  1 O s       :     3.847443  s :     3.847443
      pz      :     1.346430  p :     4.503513
      px      :     1.791938
      py      :     1.365144
  2 C s       :     3.103036  s :     3.103036
      pz      :     1.052398  p :     3.079996
      px      :     0.974296
      py      :     1.053302
  3 C s       :     3.178448  s :     3.178448
      pz      :     0.933648  p :     3.017644
      px      :     1.031548
      py      :     1.052448
  4 H s       :     0.869661  s :     0.869661
  5 H s       :     0.844227  s :     0.844227
  6 H s       :     0.848339  s :     0.848339
  7 H s       :     0.860665  s :     0.860665


                     *******************************
                     * LOEWDIN POPULATION ANALYSIS *
                     *******************************

----------------------
LOEWDIN ATOMIC CHARGES
----------------------
   0 C :    0.146000
   1 O :   -0.270391
   2 C :   -0.143446
   3 C :   -0.110669
   4 H :    0.069855
   5 H :    0.108885
   6 H :    0.101444
   7 H :    0.098323

-------------------------------
LOEWDIN REDUCED ORBITAL CHARGES
-------------------------------
  0 C s       :     2.991189  s :     2.991189
      pz      :     0.905342  p :     2.862811
      px      :     1.034334
      py      :     0.923135
  1 O s       :     3.729354  s :     3.729354
      pz      :     1.351526  p :     4.541038
      px      :     1.793756
      py      :     1.395756
  2 C s       :     2.993170  s :     2.993170
      pz      :     1.048179  p :     3.150276
      px      :     1.040981
      py      :     1.061116
  3 C s       :     3.054082  s :     3.054082
      pz      :     0.936354  p :     3.056587
      px      :     1.063288
      py      :     1.056945
  4 H s       :     0.930145  s :     0.930145
  5 H s       :     0.891115  s :     0.891115
  6 H s       :     0.898556  s :     0.898556
  7 H s       :     0.901677  s :     0.901677


                      *****************************
                      * MAYER POPULATION ANALYSIS *
                      *****************************

  NA   - Mulliken gross atomic population
  ZA   - Total nuclear charge
  QA   - Mulliken gross atomic charge
  VA   - Mayer's total valence
  BVA  - Mayer's bonded valence
  FA   - Mayer's free valence

  ATOM       NA         ZA         QA         VA         BVA        FA
  0 C      5.8470     6.0000     0.1530     3.8865     3.8865    -0.0000
  1 O      8.3510     8.0000    -0.3510     2.0462     2.0462     0.0000
  2 C      6.1830     6.0000    -0.1830     3.9691     3.9691    -0.0000
  3 C      6.1961     6.0000    -0.1961     3.9358     3.9358     0.0000
  4 H      0.8697     1.0000     0.1303     0.9830     0.9830    -0.0000
  5 H      0.8442     1.0000     0.1558     0.9757     0.9757     0.0000
  6 H      0.8483     1.0000     0.1517     0.9770     0.9770     0.0000
  7 H      0.8607     1.0000     0.1393     0.9806     0.9806     0.0000

  Mayer bond orders larger than 0.100000
B(  0-C ,  1-O ) :   1.9054 B(  0-C ,  2-C ) :   1.0365 B(  0-C ,  4-H ) :   0.9247 
B(  2-C ,  3-C ) :   1.9405 B(  2-C ,  5-H ) :   0.9502 B(  3-C ,  6-H ) :   0.9612 
B(  3-C ,  7-H ) :   0.9617 

-------
TIMINGS
-------

Total SCF time: 0 days 0 hours 0 min 5 sec 

Total time                  ....       5.146 sec
Sum of individual times     ....       0.618 sec  ( 12.0%)

Fock matrix formation       ....       0.119 sec  (  2.3%)
Diagonalization             ....       0.001 sec  (  0.0%)
Density matrix formation    ....       0.000 sec  (  0.0%)
Population analysis         ....       0.321 sec  (  6.2%)
Initial guess               ....       0.002 sec  (  0.0%)
Orbital Transformation      ....       0.000 sec  (  0.0%)
Orbital Orthonormalization  ....       0.000 sec  (  0.0%)
DIIS solution               ....       0.005 sec  (  0.1%)
SOSCF solution              ....       0.170 sec  (  3.3%)

Maximum memory used throughout the entire SCF-calculation: 225.0 MB
------------------------------------------------------------------------------
                         ORCA CIS CALCULATION
------------------------------------------------------------------------------

Input orbitals are from        ... acrolien.1147.gbw
CI-vector output               ... acrolien.1147.cis
Tamm-Dancoff approximation     ... operative
CIS-Integral strategy          ... AO-integrals
Integral handling              ... AO integral Conventional
Reference state                ... RHF
Generation of triplets         ... off
Follow IRoot                   ... off
Number of operators            ... 1
Orbital ranges used for CIS calculation:
 Operator 0:  Orbitals   4... 14  to  15... 23
XAS localization array:
 Operator 0:  Orbitals  -1... -1

------------------------
DAVIDSON-DIAGONALIZATION
------------------------

Dimension of the eigenvalue problem            ...     99
Number of roots to be determined               ...      1
Maximum size of the expansion space            ...     10
Maximum number of iterations                   ...    100
Convergence tolerance for the residual         ...    2.500e-07
Convergence tolerance for the energies         ...    2.500e-07
Orthogonality tolerance                        ...    1.000e-14
Level Shift                                    ...    0.000e+00
Constructing the preconditioner                ... o.k.
Building the initial guess                     ... o.k.
Number of trial vectors determined             ...     10


                       ****Iteration    0****

   Memory handling for direct AO based CIS:
   Memory per vector needed      ...     1 MB
   Memory needed                 ...     0 MB
   Memory available              ...   512 MB
   Number of vectors per batch   ...   512
   Number of batches             ...     1
   Time for densities:            0.000
   SHARK[4]
   Time for Sigma-Completion:     0.000
   Size of expansion space: 3
   Lowest Energy          :     0.214560041619
   Maximum Energy change  :     0.214560041619 (vector 0)
   Maximum residual norm  :     0.014938826137

                       ****Iteration    1****
   Time for densities:            0.000
   SHARK[4]
   Time for Sigma-Completion:     0.000
   Size of expansion space: 4
   Lowest Energy          :     0.151932854641
   Maximum Energy change  :     0.062627186978 (vector 0)
   Maximum residual norm  :     0.002365728206

                       ****Iteration    2****
   Time for densities:            0.000
   SHARK[4]
   Time for Sigma-Completion:     0.000
   Size of expansion space: 5
   Lowest Energy          :     0.146079859347
   Maximum Energy change  :     0.005852995295 (vector 0)
   Maximum residual norm  :     0.000462173393

                       ****Iteration    3****
   Time for densities:            0.000
   SHARK[4]
   Time for Sigma-Completion:     0.000
   Size of expansion space: 6
   Lowest Energy          :     0.145435350005
   Maximum Energy change  :     0.000644509341 (vector 0)
   Maximum residual norm  :     0.000030520089

                       ****Iteration    4****
   Time for densities:            0.000
   SHARK[4]
   Time for Sigma-Completion:     0.000
   Size of expansion space: 7
   Lowest Energy          :     0.145374884274
   Maximum Energy change  :     0.000060465731 (vector 0)
   Maximum residual norm  :     0.000002638014

                       ****Iteration    5****
   Time for densities:            0.000
   SHARK[4]
   Time for Sigma-Completion:     0.000
   Size of expansion space: 8
   Lowest Energy          :     0.145370033918
   Maximum Energy change  :     0.000004850356 (vector 0)
   Maximum residual norm  :     0.000000111417

      *** CONVERGENCE OF RESIDUAL NORM REACHED ***

Storing the converged CI vectors               ... acrolien.1147.cis1

                 *** DAVIDSON DONE ***

Total time for solving the CIS problem:     2.060sec

-----------------------------
CIS-EXCITED STATES (SINGLETS)
-----------------------------

the weight of the individual excitations are printed if larger than 1.0e-02

STATE  1:  E=   0.145370 au      3.956 eV    31905.0 cm**-1 <S**2> =   0.000000
    11a ->  15a  :     0.022555 (c= -0.15018361)
    11a ->  16a  :     0.013081 (c=  0.11437113)
    13a ->  15a  :     0.716377 (c=  0.84639032)
    13a ->  16a  :     0.205203 (c= -0.45299383)


----------------------
CIS-EXCITATION SPECTRA
----------------------

Center of mass = ( -0.6516, -0.6653,  0.2480)
Calculating the Dipole integrals                  ... done
Transforming integrals                            ... done
Calculating the Linear Momentum integrals         ... done
Transforming integrals                            ... done
Calculating angular momentum integrals            ... done
Transforming integrals                            ... done

-----------------------------------------------------------------------------
         ABSORPTION SPECTRUM VIA TRANSITION ELECTRIC DIPOLE MOMENTS
-----------------------------------------------------------------------------
State   Energy    Wavelength  fosc         T2        TX        TY        TZ  
        (cm-1)      (nm)                 (au**2)    (au)      (au)      (au) 
-----------------------------------------------------------------------------
   1   31905.0    313.4   0.000005548   0.00006   0.00478  -0.00225   0.00542

-----------------------------------------------------------------------------
         ABSORPTION SPECTRUM VIA TRANSITION VELOCITY DIPOLE MOMENTS
-----------------------------------------------------------------------------
State   Energy    Wavelength   fosc        P2         PX        PY        PZ  
        (cm-1)      (nm)                 (au**2)     (au)      (au)      (au) 
-----------------------------------------------------------------------------
   1   31905.0    313.4   0.000668799   0.00015  -0.00270   0.00463   0.01082

-------------------------------------------------------------------
                             CD SPECTRUM
-------------------------------------------------------------------
State  Energy     Wavelength     R         MX        MY        MZ   
       (cm-1)       (nm)     (1e40*cgs)   (au)      (au)      (au)  
-------------------------------------------------------------------
   1   31905.0    313.4      0.87218  -0.08113  -0.46817   0.21866

-------------------------------------------------------------------
         CD SPECTRUM VIA TRANSITION VELOCITY DIPOLE MOMENTS        
-------------------------------------------------------------------
State  Energy     Wavelength     R         MX        MY        MZ   
       (cm-1)       (nm)     (1e40*cgs)   (au)      (au)      (au)  
-------------------------------------------------------------------
   1   31905.0    313.4      1.35550  -0.08113  -0.46817   0.21866

Total run time:        2.877 sec

           *** ORCA-CIS/TD-DFT FINISHED WITHOUT ERROR ***

Maximum memory used throughout the entire CIS-calculation: 51.7 MB

-----------------------
CIS/TD-DFT TOTAL ENERGY
-----------------------

    E(SCF)  =   -189.399112530 Eh
    DE(CIS) =      0.145370034 Eh (Root  1)
    ----------------------------- ---------
    E(tot)  =   -189.253742496 Eh



-------------------------------------------------------------------------------
                          DFT DISPERSION CORRECTION                            
                                                                               
                              DFTD3 V3.1  Rev 1                                
                          USING Becke-Johnson damping                          
-------------------------------------------------------------------------------
Hartree-Fock is recognized
Active option DFTDOPT                   ...         4   

molecular C6(AA) [au] = 661.478639 


            DFT-D V3
 parameters
 using HF/MINIX parameters
 s6 scaling factor         :     1.0000 
 a1 scaling factor         :     0.4171 
 s8 scaling factor         :     0.8777 
 a2 scaling factor         :     2.9149 
 ad hoc parameters k1-k3   :    16.0000     1.3333    -4.0000 

 Edisp/kcal,au: -15.895632050174  -0.025331299385 
 E6   /kcal   :  -8.783748844 
 E8   /kcal   :  -7.111883206 
 % E8         :  44.741116197 

-------------------------   ----------------
Dispersion correction           -0.025331299
-------------------------   ----------------

------------------   -----------------
gCP+bas correction        -0.039360265
------------------   -----------------
----------------------------   ----------------
Total correction to HF/MINIX       -0.064691564
----------------------------   ----------------


-------------------------   --------------------
FINAL SINGLE POINT ENERGY      -189.318434060235
-------------------------   --------------------


                            ***************************************
                            *     ORCA property calculations      *
                            ***************************************

                                    ---------------------
                                    Active property flags
                                    ---------------------
   (+) Dipole Moment


------------------------------------------------------------------------------
                       ORCA ELECTRIC PROPERTIES CALCULATION
------------------------------------------------------------------------------

Dipole Moment Calculation                       ... on
Quadrupole Moment Calculation                   ... off
Polarizability Calculation                      ... off
GBWName                                         ... acrolien.1147.gbw
Electron density                                ... acrolien.1147.scfp
The origin for moment calculation is the CENTER OF MASS  = (-0.651650, -0.665296  0.248031)

-------------
DIPOLE MOMENT
-------------
                                X             Y             Z
Electronic contribution:     -2.01385      -1.53176       0.59724
Nuclear contribution   :      2.47492       2.47144      -0.99554
                        -----------------------------------------
Total Dipole Moment    :      0.46107       0.93968      -0.39830
                        -----------------------------------------
Magnitude (a.u.)       :      1.11992
Magnitude (Debye)      :      2.84661



--------------------
Rotational spectrum 
--------------------
 
Rotational constants in cm-1:     0.723796     0.204684     0.167063 
Rotational constants in MHz : 21698.853944  6136.281931  5008.419770 

 Dipole components along the rotational axes: 
x,y,z [a.u.] :    -0.919156    -0.585076     0.258966 
x,y,z [Debye]:    -2.336308    -1.487145     0.658240 

 

Timings for individual modules:

Sum of individual times         ...       12.758 sec (=   0.213 min)
GTO integral calculation        ...        3.869 sec (=   0.064 min)  30.3 %
SCF iterations                  ...        5.577 sec (=   0.093 min)  43.7 %
CIS module                      ...        3.312 sec (=   0.055 min)  26.0 %
                             ****ORCA TERMINATED NORMALLY****
TOTAL RUN TIME: 0 days 0 hours 0 minutes 16 seconds 39 msec
