
                                 *****************
                                 * O   R   C   A *
                                 *****************

                                            #,                                       
                                            ###                                      
                                            ####                                     
                                            #####                                    
                                            ######                                   
                                           ########,                                 
                                     ,,################,,,,,                         
                               ,,#################################,,                 
                          ,,##########################################,,             
                       ,#########################################, ''#####,          
                    ,#############################################,,   '####,        
                  ,##################################################,,,,####,       
                ,###########''''           ''''###############################       
              ,#####''   ,,,,##########,,,,          '''####'''          '####       
            ,##' ,,,,###########################,,,                        '##       
           ' ,,###''''                  '''############,,,                           
         ,,##''                                '''############,,,,        ,,,,,,###''
      ,#''                                            '''#######################'''  
     '                                                          ''''####''''         
             ,#######,   #######,   ,#######,      ##                                
            ,#'     '#,  ##    ##  ,#'     '#,    #''#        ######   ,####,        
            ##       ##  ##   ,#'  ##            #'  '#       #        #'  '#        
            ##       ##  #######   ##           ,######,      #####,   #    #        
            '#,     ,#'  ##    ##  '#,     ,#' ,#      #,         ##   #,  ,#        
             '#######'   ##     ##  '#######'  #'      '#     #####' # '####'        



                  #######################################################
                  #                        -***-                        #
                  #          Department of theory and spectroscopy      #
                  #    Directorship and core code : Frank Neese         #
                  #        Max Planck Institute fuer Kohlenforschung    #
                  #                Kaiser Wilhelm Platz 1               #
                  #                 D-45470 Muelheim/Ruhr               #
                  #                      Germany                        #
                  #                                                     #
                  #                  All rights reserved                #
                  #                        -***-                        #
                  #######################################################


                         Program Version 5.0.3 -  RELEASE  -


 With contributions from (in alphabetic order):
   Daniel Aravena         : Magnetic Suceptibility
   Michael Atanasov       : Ab Initio Ligand Field Theory (pilot matlab implementation)
   Alexander A. Auer      : GIAO ZORA, VPT2 properties, NMR spectrum
   Ute Becker             : Parallelization
   Giovanni Bistoni       : ED, misc. LED, open-shell LED, HFLD
   Martin Brehm           : Molecular dynamics
   Dmytro Bykov           : SCF Hessian
   Vijay G. Chilkuri      : MRCI spin determinant printing, contributions to CSF-ICE
   Dipayan Datta          : RHF DLPNO-CCSD density
   Achintya Kumar Dutta   : EOM-CC, STEOM-CC
   Dmitry Ganyushin       : Spin-Orbit,Spin-Spin,Magnetic field MRCI
   Miquel Garcia          : C-PCM and meta-GGA Hessian, CC/C-PCM, Gaussian charge scheme
   Yang Guo               : DLPNO-NEVPT2, F12-NEVPT2, CIM, IAO-localization
   Andreas Hansen         : Spin unrestricted coupled pair/coupled cluster methods
   Benjamin Helmich-Paris : MC-RPA, TRAH-SCF, COSX integrals
   Lee Huntington         : MR-EOM, pCC
   Robert Izsak           : Overlap fitted RIJCOSX, COSX-SCS-MP3, EOM
   Marcus Kettner         : VPT2
   Christian Kollmar      : KDIIS, OOCD, Brueckner-CCSD(T), CCSD density, CASPT2, CASPT2-K
   Simone Kossmann        : Meta GGA functionals, TD-DFT gradient, OOMP2, MP2 Hessian
   Martin Krupicka        : Initial AUTO-CI
   Lucas Lang             : DCDCAS
   Marvin Lechner         : AUTO-CI (C++ implementation), FIC-MRCC
   Dagmar Lenk            : GEPOL surface, SMD
   Dimitrios Liakos       : Extrapolation schemes; Compound Job, initial MDCI parallelization
   Dimitrios Manganas     : Further ROCIS development; embedding schemes
   Dimitrios Pantazis     : SARC Basis sets
   Anastasios Papadopoulos: AUTO-CI, single reference methods and gradients
   Taras Petrenko         : DFT Hessian,TD-DFT gradient, ASA, ECA, R-Raman, ABS, FL, XAS/XES, NRVS
   Peter Pinski           : DLPNO-MP2, DLPNO-MP2 Gradient
   Christoph Reimann      : Effective Core Potentials
   Marius Retegan         : Local ZFS, SOC
   Christoph Riplinger    : Optimizer, TS searches, QM/MM, DLPNO-CCSD(T), (RO)-DLPNO pert. Triples
   Tobias Risthaus        : Range-separated hybrids, TD-DFT gradient, RPA, STAB
   Michael Roemelt        : Original ROCIS implementation
   Masaaki Saitow         : Open-shell DLPNO-CCSD energy and density
   Barbara Sandhoefer     : DKH picture change effects
   Avijit Sen             : IP-ROCIS
   Kantharuban Sivalingam : CASSCF convergence, NEVPT2, FIC-MRCI
   Bernardo de Souza      : ESD, SOC TD-DFT
   Georgi Stoychev        : AutoAux, RI-MP2 NMR, DLPNO-MP2 response
   Willem Van den Heuvel  : Paramagnetic NMR
   Boris Wezisla          : Elementary symmetry handling
   Frank Wennmohs         : Technical directorship


 We gratefully acknowledge several colleagues who have allowed us to
 interface, adapt or use parts of their codes:
   Stefan Grimme, W. Hujo, H. Kruse, P. Pracht,  : VdW corrections, initial TS optimization,
                  C. Bannwarth, S. Ehlert          DFT functionals, gCP, sTDA/sTD-DF
   Ed Valeev, F. Pavosevic, A. Kumar             : LibInt (2-el integral package), F12 methods
   Garnet Chan, S. Sharma, J. Yang, R. Olivares  : DMRG
   Ulf Ekstrom                                   : XCFun DFT Library
   Mihaly Kallay                                 : mrcc  (arbitrary order and MRCC methods)
   Jiri Pittner, Ondrej Demel                    : Mk-CCSD
   Frank Weinhold                                : gennbo (NPA and NBO analysis)
   Christopher J. Cramer and Donald G. Truhlar   : smd solvation model
   Lars Goerigk                                  : TD-DFT with DH, B97 family of functionals
   V. Asgeirsson, H. Jonsson                     : NEB implementation
   FAccTs GmbH                                   : IRC, NEB, NEB-TS, DLPNO-Multilevel, CI-OPT
                                                   MM, QMMM, 2- and 3-layer-ONIOM, Crystal-QMMM,
                                                   LR-CPCM, SF, NACMEs, symmetry and pop. for TD-DFT,
                                                   nearIR, NL-DFT gradient (VV10), updates on ESD,
                                                   ML-optimized integration grids
   S Lehtola, MJT Oliveira, MAL Marques          : LibXC Library
   Liviu Ungur et al                             : ANISO software


 Your calculation uses the libint2 library for the computation of 2-el integrals
 For citations please refer to: http://libint.valeyev.net

 Your ORCA version has been built with support for libXC version: 5.1.0
 For citations please refer to: https://tddft.org/programs/libxc/

 This ORCA versions uses:
   CBLAS   interface :  Fast vector & matrix operations
   LAPACKE interface :  Fast linear algebra routines
   SCALAPACK package :  Parallel linear algebra routines
   Shared memory     :  Shared parallel matrices
   BLAS/LAPACK       :  OpenBLAS 0.3.15  USE64BITINT DYNAMIC_ARCH NO_AFFINITY Haswell SINGLE_THREADED
        Core in use  :  Haswell
   Copyright (c) 2011-2014, The OpenBLAS Project


================================================================================

----- Orbital basis set information -----
Your calculation utilizes the basis: cc-pVDZ 
       H, B-Ne : Obtained from the ccRepo (grant-hill.group.shef.ac.uk/ccrepo) Feb. 2017
                 T. H. Dunning, Jr., J. Chem. Phys. 90, 1007 (1989)
            He : Obtained from the ccRepo (grant-hill.group.shef.ac.uk/ccrepo) Feb. 2017
                 D. E. Woon, T. H. Dunning, Jr., J. Chem. Phys. 100, 2975 (1994)
  Li-Be, Na-Mg : Obtained from the ccRepo (grant-hill.group.shef.ac.uk/ccrepo) Feb. 2017
                 B. P. Prascher, D. E. Woon, K. A. Peterson, T. H. Dunning, Jr., A. K. Wilson, Theor. Chem. Acc. 128, 69 (2011)
         Al-Ar : Obtained from the ccRepo (grant-hill.group.shef.ac.uk/ccrepo) Feb. 2017
                 D. E. Woon, T. H. Dunning, Jr., J. Chem. Phys. 98, 1358 (1993)
            Ca : Obtained from the Peterson Research Group Website (tyr0.chem.wsu.edu/~kipeters) Feb. 2017
                 J. Koput, K. A. Peterson, J. Phys. Chem. 106, 9595 (2002)
         Sc-Zn : Obtained from the ccRepo (grant-hill.group.shef.ac.uk/ccrepo) Feb. 2017
                 N. B. Balabanov, K. A. Peterson, J. Chem. Phys. 123, 064107 (2005)
                 N. B. Balabanov, K. A. Peterson, J. Chem. Phys. 125, 074110 (2006)
         Ga-Kr : Obtained from the ccRepo (grant-hill.group.shef.ac.uk/ccrepo) Feb. 2017
                 A. K. Wilson, D. E. Woon, K. A. Peterson, T. H. Dunning, Jr., J. Chem. Phys. 110, 7667 (1999)

----- AuxJ basis set information -----
Your calculation utilizes the auxiliary basis: def2/J
   F. Weigend, Phys. Chem. Chem. Phys. 8, 1057 (2006).

================================================================================
                                        WARNINGS
                       Please study these warnings very carefully!
================================================================================

INFO   : Checking CIS options ...

INFO   : the flag for use of the SHARK integral package has been found!

================================================================================
                                       INPUT FILE
================================================================================
NAME = acrolien.107.com
|  1> ! B3LYP cc-pVDZ
|  2> !TightSCF
|  3> %scf
|  4>  ConvForced true
|  5>  convergence tight
|  6>  MaxIter 500
|  7> end
|  8>  
|  9> %tddft 
| 10>  nroots 1
| 11> end
| 12> 
| 13> # 	13043
| 14> * xyz 0 1
| 15> 		C   -1.195464  -0.438190   0.060456
| 16> 		O   -1.294690  -1.584517   0.181102
| 17> 		C    0.044856   0.458783   0.065228
| 18> 		C    1.210257   0.032664  -0.041554
| 19> 		H   -2.069864   0.354138  -0.182295
| 20> 		H   -0.307123   1.630542   0.024037
| 21> 		H    1.535916  -1.135272  -0.143902
| 22> 		H    2.151096   0.666163   0.070486
| 23> *
| 24> 
| 25>                          ****END OF INPUT****
================================================================================

                       ****************************
                       * Single Point Calculation *
                       ****************************

---------------------------------
CARTESIAN COORDINATES (ANGSTROEM)
---------------------------------
  C     -1.195464   -0.438190    0.060456
  O     -1.294690   -1.584517    0.181102
  C      0.044856    0.458783    0.065228
  C      1.210257    0.032664   -0.041554
  H     -2.069864    0.354138   -0.182295
  H     -0.307123    1.630542    0.024037
  H      1.535916   -1.135272   -0.143902
  H      2.151096    0.666163    0.070486

----------------------------
CARTESIAN COORDINATES (A.U.)
----------------------------
  NO LB      ZA    FRAG     MASS         X           Y           Z
   0 C     6.0000    0    12.011   -2.259100   -0.828059    0.114245
   1 O     8.0000    0    15.999   -2.446610   -2.994303    0.342233
   2 C     6.0000    0    12.011    0.084766    0.866974    0.123263
   3 C     6.0000    0    12.011    2.287054    0.061726   -0.078526
   4 H     1.0000    0     1.008   -3.911476    0.669224   -0.344488
   5 H     1.0000    0     1.008   -0.580378    3.081278    0.045423
   6 H     1.0000    0     1.008    2.902461   -2.145353   -0.271935
   7 H     1.0000    0     1.008    4.064982    1.258866    0.133199

--------------------------------
INTERNAL COORDINATES (ANGSTROEM)
--------------------------------
 C      0   0   0     0.000000000000     0.00000000     0.00000000
 O      1   0   0     1.156921279656     0.00000000     0.00000000
 C      1   2   0     1.530678619800   130.52679169     0.00000000
 C      3   1   2     1.245447425019   123.88078869    14.08812859
 H      1   2   3     1.204693765064   127.62125137   175.30207662
 H      3   1   2     1.224175260738   109.13643779   185.93665886
 H      4   3   1     1.216800475625   125.87701754   358.87527094
 H      4   3   1     1.139759609971   125.01710109   186.88544944

---------------------------
INTERNAL COORDINATES (A.U.)
---------------------------
 C      0   0   0     0.000000000000     0.00000000     0.00000000
 O      1   0   0     2.186264377056     0.00000000     0.00000000
 C      1   2   0     2.892563390471   130.52679169     0.00000000
 C      3   1   2     2.353554547483   123.88078869    14.08812859
 H      1   2   3     2.276541291214   127.62125137   175.30207662
 H      3   1   2     2.313355982716   109.13643779   185.93665886
 H      4   3   1     2.299419658556   125.87701754   358.87527094
 H      4   3   1     2.153833521351   125.01710109   186.88544944

---------------------
BASIS SET INFORMATION
---------------------
There are 3 groups of distinct atoms

 Group   1 Type C   : 17s4p1d contracted to 3s2p1d pattern {881/31/1}
 Group   2 Type O   : 17s4p1d contracted to 3s2p1d pattern {881/31/1}
 Group   3 Type H   : 4s1p contracted to 2s1p pattern {31/1}

Atom   0C    basis set group =>   1
Atom   1O    basis set group =>   2
Atom   2C    basis set group =>   1
Atom   3C    basis set group =>   1
Atom   4H    basis set group =>   3
Atom   5H    basis set group =>   3
Atom   6H    basis set group =>   3
Atom   7H    basis set group =>   3
---------------------------------
AUXILIARY/J BASIS SET INFORMATION
---------------------------------
There are 3 groups of distinct atoms

 Group   1 Type C   : 12s5p4d2f1g contracted to 6s4p3d1f1g pattern {711111/2111/211/2/1}
 Group   2 Type O   : 12s5p4d2f1g contracted to 6s4p3d1f1g pattern {711111/2111/211/2/1}
 Group   3 Type H   : 5s2p1d contracted to 3s1p1d pattern {311/2/1}

Atom   0C    basis set group =>   1
Atom   1O    basis set group =>   2
Atom   2C    basis set group =>   1
Atom   3C    basis set group =>   1
Atom   4H    basis set group =>   3
Atom   5H    basis set group =>   3
Atom   6H    basis set group =>   3
Atom   7H    basis set group =>   3
------------------------------------------------------------------------------
                           ORCA GTO INTEGRAL CALCULATION
                           -- RI-GTO INTEGRALS CHOSEN --
------------------------------------------------------------------------------
------------------------------------------------------------------------------
                   ___                                                        
                  /   \      - P O W E R E D   B Y -                         
                 /     \                                                     
                 |  |  |   _    _      __       _____    __    __             
                 |  |  |  | |  | |    /  \     |  _  \  |  |  /  |          
                  \  \/   | |  | |   /    \    | | | |  |  | /  /          
                 / \  \   | |__| |  /  /\  \   | |_| |  |  |/  /          
                |  |  |   |  __  | /  /__\  \  |    /   |      \           
                |  |  |   | |  | | |   __   |  |    \   |  |\   \          
                \     /   | |  | | |  |  |  |  | |\  \  |  | \   \       
                 \___/    |_|  |_| |__|  |__|  |_| \__\ |__|  \__/        
                                                                              
                      - O R C A' S   B I G   F R I E N D -                    
                                      &                                       
                       - I N T E G R A L  F E E D E R -                       
                                                                              
 v1 FN, 2020, v2 2021                                                         
------------------------------------------------------------------------------


Reading SHARK input file acrolien.107.SHARKINP.tmp ... ok
----------------------
SHARK INTEGRAL PACKAGE
----------------------

Number of atoms                             ...      8
Number of basis functions                   ...    100
Number of shells                            ...     60
Maximum angular momentum                    ...      2
Integral batch strategy                     ... SHARK/LIBINT Hybrid
RI-J (if used) integral strategy            ... SPLIT-RIJ (Revised 2003 algorithm where possible)
Printlevel                                  ...      1
Contraction scheme used                     ... PARTIAL GENERAL contraction
Coulomb Range Separation                    ... NOT USED
Exchange Range Separation                   ... NOT USED
Finite Nucleus Model                        ... NOT USED
Auxiliary Coulomb fitting basis             ... AVAILABLE
   # of basis functions in Aux-J            ...    240
   # of shells in Aux-J                     ...     80
   Maximum angular momentum in Aux-J        ...      4
Auxiliary J/K fitting basis                 ... NOT available
Auxiliary Correlation fitting basis         ... NOT available
Auxiliary 'external' fitting basis          ... NOT available
Integral threshold                          ...     2.500000e-11
Primitive cut-off                           ...     2.500000e-12
Primitive pair pre-selection threshold      ...     2.500000e-12

Calculating pre-screening integrals         ... done (  0.0 sec) Dimension = 60
Calculating pre-screening integrals (ORCA)  ... done (  0.4 sec) Dimension = 36
Organizing shell pair data                  ... done (  0.2 sec)
Shell pair information
Total number of shell pairs                 ...      1830
Shell pairs after pre-screening             ...      1531
Total number of primitive shell pairs       ...      2950
Primitive shell pairs kept                  ...      2278
          la=0 lb=0:    725 shell pairs
          la=1 lb=0:    500 shell pairs
          la=1 lb=1:     78 shell pairs
          la=2 lb=0:    170 shell pairs
          la=2 lb=1:     48 shell pairs
          la=2 lb=2:     10 shell pairs

Calculating one electron integrals          ... done (  0.0 sec)
Calculating RI/J V-Matrix + Cholesky decomp.... done (  1.9 sec)
Calculating Nuclear repulsion               ... done (  0.4 sec) ENN=    104.129554803462 Eh

SHARK setup successfully completed in   5.0 seconds

Maximum memory used throughout the entire GTOINT-calculation: 14.2 MB
-------------------------------------------------------------------------------
                                 ORCA SCF
-------------------------------------------------------------------------------

------------
SCF SETTINGS
------------
Hamiltonian:
 Density Functional     Method          .... DFT(GTOs)
 Exchange Functional    Exchange        .... B88
   X-Alpha parameter    XAlpha          ....  0.666667
   Becke's b parameter  XBeta           ....  0.004200
 Correlation Functional Correlation     .... LYP
 LDA part of GGA corr.  LDAOpt          .... VWN-5
 Gradients option       PostSCFGGA      .... off
 Hybrid DFT is turned on
   Fraction HF Exchange ScalHFX         ....  0.200000
   Scaling of DF-GGA-X  ScalDFX         ....  0.720000
   Scaling of DF-GGA-C  ScalDFC         ....  0.810000
   Scaling of DF-LDA-C  ScalLDAC        ....  1.000000
   Perturbative correction              ....  0.000000
   Density functional embedding theory  .... OFF
   NL short-range parameter             ....  4.800000
 RI-approximation to the Coulomb term is turned on
   Number of AuxJ basis functions       .... 240
   RIJ-COSX (HFX calculated with COS-X)).... on


General Settings:
 Integral files         IntName         .... acrolien.107
 Hartree-Fock type      HFTyp           .... RHF
 Total Charge           Charge          ....    0
 Multiplicity           Mult            ....    1
 Number of Electrons    NEL             ....   30
 Basis Dimension        Dim             ....   76
 Nuclear Repulsion      ENuc            ....    104.1295548035 Eh

Convergence Acceleration:
 DIIS                   CNVDIIS         .... on
   Start iteration      DIISMaxIt       ....    12
   Startup error        DIISStart       ....  0.200000
   # of expansion vecs  DIISMaxEq       ....     5
   Bias factor          DIISBfac        ....   1.050
   Max. coefficient     DIISMaxC        ....  10.000
 Trust-Rad. Augm. Hess. CNVTRAH         .... auto
   Auto Start mean grad. ratio tolernc. ....  1.125000
   Auto Start start iteration           ....    20
   Auto Start num. interpolation iter.  ....    10
   Max. Number of Micro iterations      ....    16
   Max. Number of Macro iterations      .... Maxiter - #DIIS iter
   Number of Davidson start vectors     ....     2
   Converg. threshold I  (grad. norm)   ....   1.000e-05
   Converg. threshold II (energy diff.) ....   1.000e-08
   Grad. Scal. Fac. for Micro threshold ....   0.100
   Minimum threshold for Micro iter.    ....   0.010
   NR start threshold (gradient norm)   ....   0.001
   Initial trust radius                 ....   0.400
   Minimum AH scaling param. (alpha)    ....   1.000
   Maximum AH scaling param. (alpha)    .... 1000.000
   Orbital update algorithm             .... Taylor
   White noise on init. David. guess    .... on
   Maximum white noise                  ....   0.010
   Quad. conv. algorithm                .... NR
 SOSCF                  CNVSOSCF        .... on
   Start iteration      SOSCFMaxIt      ....   150
   Startup grad/error   SOSCFStart      ....  0.003300
 Level Shifting         CNVShift        .... on
   Level shift para.    LevelShift      ....    0.2500
   Turn off err/grad.   ShiftErr        ....    0.0010
 Zerner damping         CNVZerner       .... off
 Static damping         CNVDamp         .... on
   Fraction old density DampFac         ....    0.7000
   Max. Damping (<1)    DampMax         ....    0.9800
   Min. Damping (>=0)   DampMin         ....    0.0000
   Turn off err/grad.   DampErr         ....    0.1000
 Fernandez-Rico         CNVRico         .... off

SCF Procedure:
 Maximum # iterations   MaxIter         ....   500
 SCF integral mode      SCFMode         .... Direct
   Integral package                     .... SHARK and LIBINT hybrid scheme
 Reset frequency        DirectResetFreq ....    20
 Integral Threshold     Thresh          ....  2.500e-11 Eh
 Primitive CutOff       TCut            ....  2.500e-12 Eh

Convergence Tolerance:
 Convergence Check Mode ConvCheckMode   .... Total+1el-Energy
 Convergence forced     ConvForced      .... 1
 Energy Change          TolE            ....  1.000e-08 Eh
 1-El. energy change                    ....  1.000e-05 Eh
 Orbital Gradient       TolG            ....  1.000e-05
 Orbital Rotation angle TolX            ....  1.000e-05
 DIIS Error             TolErr          ....  5.000e-07


Diagonalization of the overlap matrix:
Smallest eigenvalue                        ... 2.393e-03
Time for diagonalization                   ...    0.002 sec
Threshold for overlap eigenvalues          ... 1.000e-08
Number of eigenvalues below threshold      ... 0
Time for construction of square roots      ...    0.305 sec
Total time needed                          ...    0.306 sec

Time for model grid setup =    0.064 sec

------------------------------
INITIAL GUESS: MODEL POTENTIAL
------------------------------
Loading Hartree-Fock densities                     ... done
Calculating cut-offs                               ... done
Initializing the effective Hamiltonian             ... done
Setting up the integral package (SHARK)            ... done
Starting the Coulomb interaction                   ... done (   0.0 sec)
Reading the grid                                   ... done
Mapping shells                                     ... done
Starting the XC term evaluation                    ... done (   0.1 sec)
  promolecular density results
     # of electrons  =     29.998026437
     EX              =    -24.730042835
     EC              =     -0.994068777
     EX+EC           =    -25.724111611
Transforming the Hamiltonian                       ... done (   0.0 sec)
Diagonalizing the Hamiltonian                      ... done (   0.0 sec)
Back transforming the eigenvectors                 ... done (   0.0 sec)
Now organizing SCF variables                       ... done
                      ------------------
                      INITIAL GUESS DONE (   0.6 sec)
                      ------------------
-------------------
DFT GRID GENERATION
-------------------

General Integration Accuracy     IntAcc      ... 4.388
Radial Grid Type                 RadialGrid  ... OptM3 with GC (2021)
Angular Grid (max. ang.)         AngularGrid ... 4 (Lebedev-302)
Angular grid pruning method      GridPruning ... 4 (adaptive)
Weight generation scheme         WeightScheme... Becke
Basis function cutoff            BFCut       ... 1.0000e-11
Integration weight cutoff        WCut        ... 1.0000e-14
Angular grids for H and He will be reduced by one unit
Partially contracted basis set               ... off
Rotationally invariant grid construction     ... off

Total number of grid points                  ...    37403
Total number of batches                      ...      589
Average number of points per batch           ...       63
Average number of grid points per atom       ...     4675
Time for grid setup =    0.275 sec

--------------------
COSX GRID GENERATION
--------------------

GRIDX 1
-------
General Integration Accuracy     IntAcc      ... 3.816
Radial Grid Type                 RadialGrid  ... OptM3 with GC (2021)
Angular Grid (max. ang.)         AngularGrid ... 1 (Lebedev-50)
Angular grid pruning method      GridPruning ... 4 (adaptive)
Weight generation scheme         WeightScheme... Becke
Basis function cutoff            BFCut       ... 1.0000e-11
Integration weight cutoff        WCut        ... 1.0000e-14
Angular grids for H and He will be reduced by one unit
Partially contracted basis set               ... on
Rotationally invariant grid construction     ... off

Total number of grid points                  ...     4811
Total number of batches                      ...       79
Average number of points per batch           ...       60
Average number of grid points per atom       ...      601
UseSFitting                                  ... on

GRIDX 2
-------
General Integration Accuracy     IntAcc      ... 4.020
Radial Grid Type                 RadialGrid  ... OptM3 with GC (2021)
Angular Grid (max. ang.)         AngularGrid ... 2 (Lebedev-110)
Angular grid pruning method      GridPruning ... 4 (adaptive)
Weight generation scheme         WeightScheme... Becke
Basis function cutoff            BFCut       ... 1.0000e-11
Integration weight cutoff        WCut        ... 1.0000e-14
Angular grids for H and He will be reduced by one unit
Partially contracted basis set               ... on
Rotationally invariant grid construction     ... off

Total number of grid points                  ...    10580
Total number of batches                      ...      170
Average number of points per batch           ...       62
Average number of grid points per atom       ...     1322
UseSFitting                                  ... on

GRIDX 3
-------
General Integration Accuracy     IntAcc      ... 4.338
Radial Grid Type                 RadialGrid  ... OptM3 with GC (2021)
Angular Grid (max. ang.)         AngularGrid ... 3 (Lebedev-194)
Angular grid pruning method      GridPruning ... 4 (adaptive)
Weight generation scheme         WeightScheme... Becke
Basis function cutoff            BFCut       ... 1.0000e-11
Integration weight cutoff        WCut        ... 1.0000e-14
Angular grids for H and He will be reduced by one unit
Partially contracted basis set               ... on
Rotationally invariant grid construction     ... off

Total number of grid points                  ...    23297
Total number of batches                      ...      369
Average number of points per batch           ...       63
Average number of grid points per atom       ...     2912
UseSFitting                                  ... on

Time for X-Grid setup             =    6.554 sec

 re-compute Schwartz prescreening matrix in partically contracted basis (1) ...done (   1.136 sec)
--------------
SCF ITERATIONS
--------------
ITER       Energy         Delta-E        Max-DP      RMS-DP      [F,P]     Damp
               ***  Starting incremental Fock matrix formation  ***
  0   -191.6275260299   0.000000000000 0.08973507  0.00399576  0.2463401 0.7000
  1   -191.6954607078  -0.067934677978 0.05176264  0.00259446  0.0970746 0.7000
                               ***Turning on DIIS***
  2   -191.7187787469  -0.023318039110 0.06089248  0.00358508  0.0324250 0.0000
  3   -191.7572174203  -0.038438673331 0.03229962  0.00184259  0.0491805 0.0000
  4   -191.7658521332  -0.008634712967 0.01001007  0.00057721  0.0153038 0.0000
  5   -191.7667079871  -0.000855853821 0.00460285  0.00019239  0.0039704 0.0000
                      *** Initiating the SOSCF procedure ***
                           *** Shutting down DIIS ***
                      *** Re-Reading the Fockian *** 
                      *** Removing any level shift *** 
ITER      Energy       Delta-E        Grad      Rot      Max-DP    RMS-DP
  6   -191.76674857  -0.0000405801  0.000297  0.000297  0.002346  0.000105
               *** Restarting incremental Fock matrix formation ***
  7   -191.76675475  -0.0000061874  0.000150  0.000538  0.001059  0.000040
  8   -191.76675428   0.0000004783  0.000268  0.000419  0.000506  0.000021
  9   -191.76675522  -0.0000009477  0.000042  0.000104  0.000173  0.000007
 10   -191.76675518   0.0000000430  0.000073  0.000071  0.000112  0.000004
 11   -191.76675525  -0.0000000652  0.000008  0.000022  0.000036  0.000001
 12   -191.76675525   0.0000000007  0.000014  0.000014  0.000024  0.000001
                  ***Gradient check signals convergence***
              ***Rediagonalizing the Fockian in SOSCF/NRSCF***

               *****************************************************
               *                     SUCCESS                       *
               *           SCF CONVERGED AFTER  13 CYCLES          *
               *****************************************************

Old exchange energy                            =     -5.017113207 Eh
New exchange energy                            =     -5.017108180 Eh
Exchange energy change after final integration =      0.000005027 Eh
Total energy after final integration           =   -191.766750220 Eh
Final COS-X integration done in                =     1.577 sec

----------------
TOTAL SCF ENERGY
----------------

Total Energy       :         -191.76675022 Eh           -5218.23856 eV

Components:
Nuclear Repulsion  :          104.12955480 Eh            2833.50924 eV
Electronic Energy  :         -295.89630502 Eh           -8051.74780 eV
One Electron Energy:         -465.33337233 Eh          -12662.36480 eV
Two Electron Energy:          169.43706731 Eh            4610.61700 eV
Max COSX asymmetry :            0.00000118 Eh               0.00003 eV

Virial components:
Potential Energy   :         -382.41041534 Eh          -10405.91643 eV
Kinetic Energy     :          190.64366512 Eh            5187.67786 eV
Virial Ratio       :            2.00589102


DFT components:
N(Alpha)           :       15.000000615886 electrons
N(Beta)            :       15.000000615886 electrons
N(Total)           :       30.000001231772 electrons
E(X)               :      -19.949224863468 Eh       
E(C)               :       -1.180960935893 Eh       
E(XC)              :      -21.130185799360 Eh       
DFET-embed. en.    :        0.000000000000 Eh       

---------------
SCF CONVERGENCE
---------------

  Last Energy change         ...   -2.1142e-09  Tolerance :   1.0000e-08
  Last MAX-Density change    ...    4.4409e-15  Tolerance :   1.0000e-07
  Last RMS-Density change    ...    9.2155e-17  Tolerance :   5.0000e-09
  Last Orbital Gradient      ...    5.6676e-07  Tolerance :   1.0000e-05
  Last Orbital Rotation      ...    1.0628e-06  Tolerance :   1.0000e-05

             **** THE GBW FILE WAS UPDATED (acrolien.107.gbw) ****
             **** DENSITY acrolien.107.scfp WAS UPDATED ****
             **** ENERGY FILE WAS UPDATED (acrolien.107.en.tmp) ****
             **** THE GBW FILE WAS UPDATED (acrolien.107.gbw) ****
             **** DENSITY acrolien.107.scfp WAS UPDATED ****
----------------
ORBITAL ENERGIES
----------------

  NO   OCC          E(Eh)            E(eV) 
   0   2.0000     -19.154288      -521.2147 
   1   2.0000     -10.285144      -279.8730 
   2   2.0000     -10.215543      -277.9791 
   3   2.0000     -10.207034      -277.7475 
   4   2.0000      -1.086003       -29.5516 
   5   2.0000      -0.805324       -21.9140 
   6   2.0000      -0.645020       -17.5519 
   7   2.0000      -0.521593       -14.1933 
   8   2.0000      -0.493099       -13.4179 
   9   2.0000      -0.462720       -12.5913 
  10   2.0000      -0.433929       -11.8078 
  11   2.0000      -0.416530       -11.3344 
  12   2.0000      -0.358564        -9.7570 
  13   2.0000      -0.307153        -8.3581 
  14   2.0000      -0.255636        -6.9562 
  15   0.0000      -0.055007        -1.4968 
  16   0.0000       0.037530         1.0213 
  17   0.0000       0.071675         1.9504 
  18   0.0000       0.073218         1.9924 
  19   0.0000       0.115275         3.1368 
  20   0.0000       0.132977         3.6185 
  21   0.0000       0.244274         6.6470 
  22   0.0000       0.284994         7.7551 
  23   0.0000       0.310529         8.4499 
  24   0.0000       0.407716        11.0945 
  25   0.0000       0.436892        11.8884 
  26   0.0000       0.454827        12.3765 
  27   0.0000       0.482672        13.1342 
  28   0.0000       0.507484        13.8093 
  29   0.0000       0.532180        14.4813 
  30   0.0000       0.572544        15.5797 
  31   0.0000       0.587380        15.9834 
  32   0.0000       0.614918        16.7328 
  33   0.0000       0.664060        18.0700 
  34   0.0000       0.703087        19.1320 
  35   0.0000       0.751934        20.4612 
  36   0.0000       0.767751        20.8916 
  37   0.0000       0.834088        22.6967 
  38   0.0000       0.906664        24.6716 
  39   0.0000       0.962811        26.1994 
  40   0.0000       0.977681        26.6040 
  41   0.0000       0.996122        27.1058 
  42   0.0000       1.031699        28.0740 
  43   0.0000       1.076105        29.2823 
  44   0.0000       1.093455        29.7544 
  45   0.0000       1.130932        30.7742 
  46   0.0000       1.157498        31.4971 
  47   0.0000       1.283444        34.9243 
  48   0.0000       1.416211        38.5371 
  49   0.0000       1.472428        40.0668 
  50   0.0000       1.484985        40.4085 
  51   0.0000       1.505665        40.9712 
  52   0.0000       1.553195        42.2646 
  53   0.0000       1.566687        42.6317 
  54   0.0000       1.595493        43.4156 
  55   0.0000       1.613854        43.9152 
  56   0.0000       1.662552        45.2403 
  57   0.0000       1.700817        46.2816 
  58   0.0000       1.788864        48.6775 
  59   0.0000       1.802355        49.0446 
  60   0.0000       1.903599        51.7996 
  61   0.0000       1.923107        52.3304 
  62   0.0000       1.973028        53.6888 
  63   0.0000       2.000406        54.4338 
  64   0.0000       2.090424        56.8833 
  65   0.0000       2.229652        60.6719 
  66   0.0000       2.286130        62.2088 
  67   0.0000       2.328194        63.3534 
  68   0.0000       2.465837        67.0988 
  69   0.0000       2.661768        72.4304 
  70   0.0000       2.676766        72.8385 
  71   0.0000       2.750292        74.8393 
  72   0.0000       2.918902        79.4274 
  73   0.0000       3.121757        84.9473 
  74   0.0000       3.437815        93.5477 
  75   0.0000       3.508404        95.4685 

                    ********************************
                    * MULLIKEN POPULATION ANALYSIS *
                    ********************************

-----------------------
MULLIKEN ATOMIC CHARGES
-----------------------
   0 C :    0.156171
   1 O :   -0.121322
   2 C :   -0.149157
   3 C :    0.024383
   4 H :   -0.039475
   5 H :    0.026375
   6 H :    0.059792
   7 H :    0.043233
Sum of atomic charges:   -0.0000000

--------------------------------
MULLIKEN REDUCED ORBITAL CHARGES
--------------------------------
  0 C s       :     3.118631  s :     3.118631
      pz      :     0.750748  p :     2.571210
      px      :     0.935553
      py      :     0.884909
      dz2     :     0.006597  d :     0.153987
      dxz     :     0.005897
      dyz     :     0.032299
      dx2y2   :     0.030637
      dxy     :     0.078557
  1 O s       :     3.709246  s :     3.709246
      pz      :     1.286932  p :     4.390389
      px      :     1.722339
      py      :     1.381118
      dz2     :     0.002402  d :     0.021688
      dxz     :     0.000130
      dyz     :     0.006675
      dx2y2   :     0.007230
      dxy     :     0.005250
  2 C s       :     3.198473  s :     3.198473
      pz      :     0.992371  p :     2.888994
      px      :     0.976843
      py      :     0.919780
      dz2     :     0.003601  d :     0.061689
      dxz     :     0.009618
      dyz     :     0.003062
      dx2y2   :     0.021134
      dxy     :     0.024275
  3 C s       :     3.096982  s :     3.096982
      pz      :     0.909762  p :     2.832259
      px      :     0.985838
      py      :     0.936659
      dz2     :     0.001309  d :     0.046376
      dxz     :     0.010488
      dyz     :     0.001484
      dx2y2   :     0.014909
      dxy     :     0.018186
  4 H s       :     1.016442  s :     1.016442
      pz      :     0.002830  p :     0.023032
      px      :     0.011415
      py      :     0.008788
  5 H s       :     0.950687  s :     0.950687
      pz      :     0.003831  p :     0.022938
      px      :     0.003591
      py      :     0.015517
  6 H s       :     0.915969  s :     0.915969
      pz      :     0.003563  p :     0.024239
      px      :     0.004544
      py      :     0.016132
  7 H s       :     0.929303  s :     0.929303
      pz      :     0.004678  p :     0.027464
      px      :     0.013998
      py      :     0.008788


                     *******************************
                     * LOEWDIN POPULATION ANALYSIS *
                     *******************************

----------------------
LOEWDIN ATOMIC CHARGES
----------------------
   0 C :   -0.064960
   1 O :    0.065587
   2 C :   -0.112746
   3 C :   -0.020756
   4 H :   -0.018778
   5 H :    0.051841
   6 H :    0.056927
   7 H :    0.042885

-------------------------------
LOEWDIN REDUCED ORBITAL CHARGES
-------------------------------
  0 C s       :     2.884671  s :     2.884671
      pz      :     0.745565  p :     2.767025
      px      :     1.000821
      py      :     1.020639
      dz2     :     0.023279  d :     0.413264
      dxz     :     0.013839
      dyz     :     0.067678
      dx2y2   :     0.084479
      dxy     :     0.223989
  1 O s       :     3.456247  s :     3.456247
      pz      :     1.260489  p :     4.439656
      px      :     1.672674
      py      :     1.506493
      dz2     :     0.005134  d :     0.038511
      dxz     :     0.000179
      dyz     :     0.008051
      dx2y2   :     0.015487
      dxy     :     0.009659
  2 C s       :     2.863321  s :     2.863321
      pz      :     0.955703  p :     3.046566
      px      :     1.105431
      py      :     0.985432
      dz2     :     0.016436  d :     0.202859
      dxz     :     0.024522
      dyz     :     0.005988
      dx2y2   :     0.073273
      dxy     :     0.082638
  3 C s       :     2.862402  s :     2.862402
      pz      :     0.887530  p :     2.993387
      px      :     1.087527
      py      :     1.018330
      dz2     :     0.011536  d :     0.164966
      dxz     :     0.023644
      dyz     :     0.003434
      dx2y2   :     0.060488
      dxy     :     0.065865
  4 H s       :     0.956258  s :     0.956258
      pz      :     0.007987  p :     0.062520
      px      :     0.030812
      py      :     0.023721
  5 H s       :     0.893112  s :     0.893112
      pz      :     0.010070  p :     0.055047
      px      :     0.008527
      py      :     0.036451
  6 H s       :     0.885199  s :     0.885199
      pz      :     0.009380  p :     0.057874
      px      :     0.009516
      py      :     0.038978
  7 H s       :     0.886516  s :     0.886516
      pz      :     0.013352  p :     0.070599
      px      :     0.033003
      py      :     0.024244


                      *****************************
                      * MAYER POPULATION ANALYSIS *
                      *****************************

  NA   - Mulliken gross atomic population
  ZA   - Total nuclear charge
  QA   - Mulliken gross atomic charge
  VA   - Mayer's total valence
  BVA  - Mayer's bonded valence
  FA   - Mayer's free valence

  ATOM       NA         ZA         QA         VA         BVA        FA
  0 C      5.8438     6.0000     0.1562     4.2078     4.2078    -0.0000
  1 O      8.1213     8.0000    -0.1213     2.4480     2.4480    -0.0000
  2 C      6.1492     6.0000    -0.1492     3.9980     3.9980    -0.0000
  3 C      5.9756     6.0000     0.0244     3.9426     3.9426    -0.0000
  4 H      1.0395     1.0000    -0.0395     0.9585     0.9585    -0.0000
  5 H      0.9736     1.0000     0.0264     0.9794     0.9794    -0.0000
  6 H      0.9402     1.0000     0.0598     0.9815     0.9815     0.0000
  7 H      0.9568     1.0000     0.0432     0.9713     0.9713    -0.0000

  Mayer bond orders larger than 0.100000
B(  0-C ,  1-O ) :   2.2995 B(  0-C ,  2-C ) :   0.9976 B(  0-C ,  4-H ) :   0.8735 
B(  2-C ,  3-C ) :   2.0070 B(  2-C ,  5-H ) :   0.9239 B(  3-C ,  6-H ) :   0.9231 
B(  3-C ,  7-H ) :   0.9286 

-------
TIMINGS
-------

Total SCF time: 0 days 0 hours 2 min 52 sec 

Total time                  ....     172.418 sec
Sum of individual times     ....     125.851 sec  ( 73.0%)

Fock matrix formation       ....     118.259 sec  ( 68.6%)
  Split-RI-J                ....       0.976 sec  (  0.8% of F)
  Chain of spheres X        ....       8.557 sec  (  7.2% of F)
  XC integration            ....      49.466 sec  ( 41.8% of F)
    Basis function eval.    ....       1.758 sec  (  3.6% of XC)
    Density eval.           ....       0.832 sec  (  1.7% of XC)
    XC-Functional eval.     ....       0.721 sec  (  1.5% of XC)
    XC-Potential eval.      ....       0.604 sec  (  1.2% of XC)
Diagonalization             ....       0.008 sec  (  0.0%)
Density matrix formation    ....       0.001 sec  (  0.0%)
Population analysis         ....       0.009 sec  (  0.0%)
Initial guess               ....       0.579 sec  (  0.3%)
Orbital Transformation      ....       0.000 sec  (  0.0%)
Orbital Orthonormalization  ....       0.000 sec  (  0.0%)
DIIS solution               ....       0.097 sec  (  0.1%)
SOSCF solution              ....       0.005 sec  (  0.0%)
Grid generation             ....       6.894 sec  (  4.0%)

Maximum memory used throughout the entire SCF-calculation: 51.7 MB
------------------------------------------------------------------------------
                        ORCA TD-DFT/TDA CALCULATION
------------------------------------------------------------------------------

Input orbitals are from        ... acrolien.107.gbw
CI-vector output               ... acrolien.107.cis
Tamm-Dancoff approximation     ... operative
CIS-Integral strategy          ... AO-integrals
Integral handling              ... AO integral Direct
Max. core memory used          ... 512 MB
Reference state                ... RHF
Generation of triplets         ... off
Follow IRoot                   ... off
Number of operators            ... 1
Orbital ranges used for CIS calculation:
 Operator 0:  Orbitals   4... 14  to  15... 75
XAS localization array:
 Operator 0:  Orbitals  -1... -1

-------------------
XC-INTEGRATION GRID
-------------------

General Integration Accuracy     IntAcc      ... 3.467
Radial Grid Type                 RadialGrid  ... OptM3 with GC (2021)
Angular Grid (max. ang.)         AngularGrid ... 1 (Lebedev-50)
Angular grid pruning method      GridPruning ... 4 (adaptive)
Weight generation scheme         WeightScheme... Becke
Basis function cutoff            BFCut       ... 1.0000e-11
Integration weight cutoff        WCut        ... 1.0000e-14
Angular grids for H and He will be reduced by one unit
Partially contracted basis set               ... off
Rotationally invariant grid construction     ... off

Total number of grid points                  ...     5502
Total number of batches                      ...       90
Average number of points per batch           ...       61
Average number of grid points per atom       ...      688

---------------------
COSX-INTEGRATION GRID
---------------------

General Integration Accuracy     IntAcc      ... 3.067
Radial Grid Type                 RadialGrid  ... OptM3 with GC (2021)
Angular Grid (max. ang.)         AngularGrid ... 1 (Lebedev-50)
Angular grid pruning method      GridPruning ... 4 (adaptive)
Weight generation scheme         WeightScheme... Becke
Basis function cutoff            BFCut       ... 1.0000e-11
Integration weight cutoff        WCut        ... 1.0000e-14
Angular grids for H and He will be reduced by one unit
Partially contracted basis set               ... on
Rotationally invariant grid construction     ... off

Total number of grid points                  ...     2509
Total number of batches                      ...       44
Average number of points per batch           ...       57
Average number of grid points per atom       ...      314

---------------
TD-DFT XC SETUP
---------------

DFT calculation                         ... on
Name of the grid file                   ... acrolien.107.grid_cis.tmp
Exchange functional (TD-DFT)            ... B88
   X-Alpha parameter    XAlpha (TD-DFT) ...  0.666667
   Becke's b parameter  XBeta (TD-DFT)  ...  0.004200
Correlation functional (TD-DFT)         ... LYP
 LDA part of GGA corr.  LDAOpt (TD-DFT) ... VWN-5
Hybrid DFT                              ... on
   Exchange mixing (TD-DFT)             ...  0.200
   GGA exch. scaling (TD-DFT)           ...  0.720
   GGA corr. scaling (TD-DFT)           ...  0.810

Building densities             ... done
Calculating rho(r) on the grid ... done
Building xc-kernel on the grid ... done
                    *** TD-DFT CALCULATION INITIALIZED ***

------------------------
DAVIDSON-DIAGONALIZATION
------------------------

Dimension of the eigenvalue problem            ...    671
Number of roots to be determined               ...      1
Maximum size of the expansion space            ...     10
Maximum number of iterations                   ...    100
Convergence tolerance for the residual         ...    2.500e-07
Convergence tolerance for the energies         ...    2.500e-07
Orthogonality tolerance                        ...    1.000e-14
Level Shift                                    ...    0.000e+00
Constructing the preconditioner                ... o.k.
Building the initial guess                     ... o.k.
Number of trial vectors determined             ...     10


                       ****Iteration    0****

   Memory handling for direct AO based CIS:
   Memory per vector needed      ...     1 MB
   Memory needed                 ...     0 MB
   Memory available              ...   512 MB
   Number of vectors per batch   ...   512
   Number of batches             ...     1
   Time for densities:            0.000
   Time for RI-J (Direct):        0.069
   Time for K (COSX):             2.716
   Time for XC-Integration:       0.081
   Time for Sigma-Completion:     0.000
   Size of expansion space: 3
   Lowest Energy          :     0.145619143250
   Maximum Energy change  :     0.145619143250 (vector 0)
   Maximum residual norm  :     0.001390629690

                       ****Iteration    1****
   Time for densities:            0.000
   Time for RI-J (Direct):        0.052
   Time for K (COSX):             0.190
   Time for XC-Integration:       0.042
   Time for Sigma-Completion:     0.000
   Size of expansion space: 4
   Lowest Energy          :     0.143048547612
   Maximum Energy change  :     0.002570595638 (vector 0)
   Maximum residual norm  :     0.000128074993

                       ****Iteration    2****
   Time for densities:            0.000
   Time for RI-J (Direct):        0.052
   Time for K (COSX):             0.195
   Time for XC-Integration:       0.068
   Time for Sigma-Completion:     0.000
   Size of expansion space: 5
   Lowest Energy          :     0.142881793420
   Maximum Energy change  :     0.000166754192 (vector 0)
   Maximum residual norm  :     0.000005424723

                       ****Iteration    3****
   Time for densities:            0.000
   Time for RI-J (Direct):        0.054
   Time for K (COSX):             1.114
   Time for XC-Integration:       0.043
   Time for Sigma-Completion:     0.000
   Size of expansion space: 6
   Lowest Energy          :     0.142875837436
   Maximum Energy change  :     0.000005955984 (vector 0)
   Maximum residual norm  :     0.000000876694

                       ****Iteration    4****
   Time for densities:            0.000
   Time for RI-J (Direct):        0.053
   Time for K (COSX):             0.194
   Time for XC-Integration:       0.043
   Time for Sigma-Completion:     0.000
   Size of expansion space: 7
   Lowest Energy          :     0.142875026224
   Maximum Energy change  :     0.000000811212 (vector 0)
   Maximum residual norm  :     0.000000066496

      *** CONVERGENCE OF RESIDUAL NORM REACHED ***

Storing the converged CI vectors               ... acrolien.107.cis1

                 *** DAVIDSON DONE ***

Total time for solving the CIS problem:     6.581sec

------------------------------------
TD-DFT/TDA EXCITED STATES (SINGLETS)
------------------------------------

the weight of the individual excitations are printed if larger than 1.0e-02

STATE  1:  E=   0.142875 au      3.888 eV    31357.4 cm**-1 <S**2> =   0.000000
    14a ->  15a  :     0.980764 (c= -0.99033519)


-----------------------------
TD-DFT/TDA-EXCITATION SPECTRA
-----------------------------

Center of mass = ( -0.6295, -0.7814,  0.1239)
Calculating the Dipole integrals                  ... done
Transforming integrals                            ... done
Calculating the Linear Momentum integrals         ... done
Transforming integrals                            ... done
Calculating angular momentum integrals            ... done
Transforming integrals                            ... done

-----------------------------------------------------------------------------
         ABSORPTION SPECTRUM VIA TRANSITION ELECTRIC DIPOLE MOMENTS
-----------------------------------------------------------------------------
State   Energy    Wavelength  fosc         T2        TX        TY        TZ  
        (cm-1)      (nm)                 (au**2)    (au)      (au)      (au) 
-----------------------------------------------------------------------------
   1   31357.4    318.9   0.000558352   0.00586  -0.03873  -0.03550   0.05569

-----------------------------------------------------------------------------
         ABSORPTION SPECTRUM VIA TRANSITION VELOCITY DIPOLE MOMENTS
-----------------------------------------------------------------------------
State   Energy    Wavelength   fosc        P2         PX        PY        PZ  
        (cm-1)      (nm)                 (au**2)     (au)      (au)      (au) 
-----------------------------------------------------------------------------
   1   31357.4    318.9   0.001273896   0.00027  -0.00850  -0.00012  -0.01417

-------------------------------------------------------------------
                             CD SPECTRUM
-------------------------------------------------------------------
State  Energy     Wavelength     R         MX        MY        MZ   
       (cm-1)       (nm)     (1e40*cgs)   (au)      (au)      (au)  
-------------------------------------------------------------------
   1   31357.4    318.9     -9.58020   0.12076   0.36144  -0.05050

-------------------------------------------------------------------
         CD SPECTRUM VIA TRANSITION VELOCITY DIPOLE MOMENTS        
-------------------------------------------------------------------
State  Energy     Wavelength     R         MX        MY        MZ   
       (cm-1)       (nm)     (1e40*cgs)   (au)      (au)      (au)  
-------------------------------------------------------------------
   1   31357.4    318.9     -1.16742   0.12076   0.36144  -0.05050

Total run time:       16.021 sec

           *** ORCA-CIS/TD-DFT FINISHED WITHOUT ERROR ***

Maximum memory used throughout the entire CIS-calculation: 48.6 MB

-----------------------
CIS/TD-DFT TOTAL ENERGY
-----------------------

    E(SCF)  =   -191.766750220 Eh
    DE(CIS) =      0.142875026 Eh (Root  1)
    ----------------------------- ---------
    E(tot)  =   -191.623875194 Eh


-------------------------   --------------------
FINAL SINGLE POINT ENERGY      -191.623875193844
-------------------------   --------------------


                            ***************************************
                            *     ORCA property calculations      *
                            ***************************************

                                    ---------------------
                                    Active property flags
                                    ---------------------
   (+) Dipole Moment


------------------------------------------------------------------------------
                       ORCA ELECTRIC PROPERTIES CALCULATION
------------------------------------------------------------------------------

Dipole Moment Calculation                       ... on
Quadrupole Moment Calculation                   ... off
Polarizability Calculation                      ... off
GBWName                                         ... acrolien.107.gbw
Electron density                                ... acrolien.107.scfp
The origin for moment calculation is the CENTER OF MASS  = (-0.629531, -0.781431  0.123852)

-------------
DIPOLE MOMENT
-------------
                                X             Y             Z
Electronic contribution:     -1.97893      -2.24870       0.37998
Nuclear contribution   :      2.46497       2.95636      -0.46159
                        -----------------------------------------
Total Dipole Moment    :      0.48603       0.70766      -0.08161
                        -----------------------------------------
Magnitude (a.u.)       :      0.86236
Magnitude (Debye)      :      2.19195



--------------------
Rotational spectrum 
--------------------
 
Rotational constants in cm-1:     0.832670     0.193245     0.157443 
Rotational constants in MHz : 24962.813371  5793.334900  4720.024115 

 Dipole components along the rotational axes: 
x,y,z [a.u.] :    -0.797166    -0.327311     0.032629 
x,y,z [Debye]:    -2.026236    -0.831958     0.082936 

 

Timings for individual modules:

Sum of individual times         ...      194.997 sec (=   3.250 min)
GTO integral calculation        ...        6.537 sec (=   0.109 min)   3.4 %
SCF iterations                  ...      172.430 sec (=   2.874 min)  88.4 %
CIS module                      ...       16.029 sec (=   0.267 min)   8.2 %
                             ****ORCA TERMINATED NORMALLY****
TOTAL RUN TIME: 0 days 0 hours 3 minutes 19 seconds 359 msec
