
                                 *****************
                                 * O   R   C   A *
                                 *****************

                                            #,                                       
                                            ###                                      
                                            ####                                     
                                            #####                                    
                                            ######                                   
                                           ########,                                 
                                     ,,################,,,,,                         
                               ,,#################################,,                 
                          ,,##########################################,,             
                       ,#########################################, ''#####,          
                    ,#############################################,,   '####,        
                  ,##################################################,,,,####,       
                ,###########''''           ''''###############################       
              ,#####''   ,,,,##########,,,,          '''####'''          '####       
            ,##' ,,,,###########################,,,                        '##       
           ' ,,###''''                  '''############,,,                           
         ,,##''                                '''############,,,,        ,,,,,,###''
      ,#''                                            '''#######################'''  
     '                                                          ''''####''''         
             ,#######,   #######,   ,#######,      ##                                
            ,#'     '#,  ##    ##  ,#'     '#,    #''#        ######   ,####,        
            ##       ##  ##   ,#'  ##            #'  '#       #        #'  '#        
            ##       ##  #######   ##           ,######,      #####,   #    #        
            '#,     ,#'  ##    ##  '#,     ,#' ,#      #,         ##   #,  ,#        
             '#######'   ##     ##  '#######'  #'      '#     #####' # '####'        



                  #######################################################
                  #                        -***-                        #
                  #          Department of theory and spectroscopy      #
                  #    Directorship and core code : Frank Neese         #
                  #        Max Planck Institute fuer Kohlenforschung    #
                  #                Kaiser Wilhelm Platz 1               #
                  #                 D-45470 Muelheim/Ruhr               #
                  #                      Germany                        #
                  #                                                     #
                  #                  All rights reserved                #
                  #                        -***-                        #
                  #######################################################


                         Program Version 5.0.3 -  RELEASE  -


 With contributions from (in alphabetic order):
   Daniel Aravena         : Magnetic Suceptibility
   Michael Atanasov       : Ab Initio Ligand Field Theory (pilot matlab implementation)
   Alexander A. Auer      : GIAO ZORA, VPT2 properties, NMR spectrum
   Ute Becker             : Parallelization
   Giovanni Bistoni       : ED, misc. LED, open-shell LED, HFLD
   Martin Brehm           : Molecular dynamics
   Dmytro Bykov           : SCF Hessian
   Vijay G. Chilkuri      : MRCI spin determinant printing, contributions to CSF-ICE
   Dipayan Datta          : RHF DLPNO-CCSD density
   Achintya Kumar Dutta   : EOM-CC, STEOM-CC
   Dmitry Ganyushin       : Spin-Orbit,Spin-Spin,Magnetic field MRCI
   Miquel Garcia          : C-PCM and meta-GGA Hessian, CC/C-PCM, Gaussian charge scheme
   Yang Guo               : DLPNO-NEVPT2, F12-NEVPT2, CIM, IAO-localization
   Andreas Hansen         : Spin unrestricted coupled pair/coupled cluster methods
   Benjamin Helmich-Paris : MC-RPA, TRAH-SCF, COSX integrals
   Lee Huntington         : MR-EOM, pCC
   Robert Izsak           : Overlap fitted RIJCOSX, COSX-SCS-MP3, EOM
   Marcus Kettner         : VPT2
   Christian Kollmar      : KDIIS, OOCD, Brueckner-CCSD(T), CCSD density, CASPT2, CASPT2-K
   Simone Kossmann        : Meta GGA functionals, TD-DFT gradient, OOMP2, MP2 Hessian
   Martin Krupicka        : Initial AUTO-CI
   Lucas Lang             : DCDCAS
   Marvin Lechner         : AUTO-CI (C++ implementation), FIC-MRCC
   Dagmar Lenk            : GEPOL surface, SMD
   Dimitrios Liakos       : Extrapolation schemes; Compound Job, initial MDCI parallelization
   Dimitrios Manganas     : Further ROCIS development; embedding schemes
   Dimitrios Pantazis     : SARC Basis sets
   Anastasios Papadopoulos: AUTO-CI, single reference methods and gradients
   Taras Petrenko         : DFT Hessian,TD-DFT gradient, ASA, ECA, R-Raman, ABS, FL, XAS/XES, NRVS
   Peter Pinski           : DLPNO-MP2, DLPNO-MP2 Gradient
   Christoph Reimann      : Effective Core Potentials
   Marius Retegan         : Local ZFS, SOC
   Christoph Riplinger    : Optimizer, TS searches, QM/MM, DLPNO-CCSD(T), (RO)-DLPNO pert. Triples
   Tobias Risthaus        : Range-separated hybrids, TD-DFT gradient, RPA, STAB
   Michael Roemelt        : Original ROCIS implementation
   Masaaki Saitow         : Open-shell DLPNO-CCSD energy and density
   Barbara Sandhoefer     : DKH picture change effects
   Avijit Sen             : IP-ROCIS
   Kantharuban Sivalingam : CASSCF convergence, NEVPT2, FIC-MRCI
   Bernardo de Souza      : ESD, SOC TD-DFT
   Georgi Stoychev        : AutoAux, RI-MP2 NMR, DLPNO-MP2 response
   Willem Van den Heuvel  : Paramagnetic NMR
   Boris Wezisla          : Elementary symmetry handling
   Frank Wennmohs         : Technical directorship


 We gratefully acknowledge several colleagues who have allowed us to
 interface, adapt or use parts of their codes:
   Stefan Grimme, W. Hujo, H. Kruse, P. Pracht,  : VdW corrections, initial TS optimization,
                  C. Bannwarth, S. Ehlert          DFT functionals, gCP, sTDA/sTD-DF
   Ed Valeev, F. Pavosevic, A. Kumar             : LibInt (2-el integral package), F12 methods
   Garnet Chan, S. Sharma, J. Yang, R. Olivares  : DMRG
   Ulf Ekstrom                                   : XCFun DFT Library
   Mihaly Kallay                                 : mrcc  (arbitrary order and MRCC methods)
   Jiri Pittner, Ondrej Demel                    : Mk-CCSD
   Frank Weinhold                                : gennbo (NPA and NBO analysis)
   Christopher J. Cramer and Donald G. Truhlar   : smd solvation model
   Lars Goerigk                                  : TD-DFT with DH, B97 family of functionals
   V. Asgeirsson, H. Jonsson                     : NEB implementation
   FAccTs GmbH                                   : IRC, NEB, NEB-TS, DLPNO-Multilevel, CI-OPT
                                                   MM, QMMM, 2- and 3-layer-ONIOM, Crystal-QMMM,
                                                   LR-CPCM, SF, NACMEs, symmetry and pop. for TD-DFT,
                                                   nearIR, NL-DFT gradient (VV10), updates on ESD,
                                                   ML-optimized integration grids
   S Lehtola, MJT Oliveira, MAL Marques          : LibXC Library
   Liviu Ungur et al                             : ANISO software


 Your calculation uses the libint2 library for the computation of 2-el integrals
 For citations please refer to: http://libint.valeyev.net

 Your ORCA version has been built with support for libXC version: 5.1.0
 For citations please refer to: https://tddft.org/programs/libxc/

 This ORCA versions uses:
   CBLAS   interface :  Fast vector & matrix operations
   LAPACKE interface :  Fast linear algebra routines
   SCALAPACK package :  Parallel linear algebra routines
   Shared memory     :  Shared parallel matrices
   BLAS/LAPACK       :  OpenBLAS 0.3.15  USE64BITINT DYNAMIC_ARCH NO_AFFINITY Haswell SINGLE_THREADED
        Core in use  :  Haswell
   Copyright (c) 2011-2014, The OpenBLAS Project


Your calculation utilizes the geometrical counterpoise correction gCP
Please cite in your paper:
H.Kruse, S. Grimme J.Chem.Phys., 136, (2012), 154101 
   

Your calculation utilizes the atom-pairwise dispersion correction
with the Becke-Johnson damping scheme (D3BJ)
Cite in your paper:
S.Grimme, S.Ehrlich, L.Goerigk, J Comput Chem, (2011), 32, 1456–1465 
S.Grimme, J.Antony, S.Ehrlich and H.Krieg, J.Chem.Phys., 132, (2010), 154104 
   

================================================================================

----- Orbital basis set information -----
Your calculation utilizes the basis: MINIX,
   a combination of small basis sets by S. Grimme (see manual for definitions).

================================================================================
                                        WARNINGS
                       Please study these warnings very carefully!
================================================================================

INFO   : Checking CIS options ...

INFO   : the flag for use of the SHARK integral package has been found!

================================================================================
                                       INPUT FILE
================================================================================
NAME = acrolien.975.com
|  1> ! HF-3c
|  2> !TightSCF
|  3> %scf
|  4>  ConvForced true
|  5>  convergence tight
|  6>  MaxIter 500
|  7> end
|  8>  
|  9> %tddft 
| 10>  nroots 1
| 11> end
| 12> 
| 13> # 	20041
| 14> * xyz 0 1
| 15> 		C   -0.612280  -0.442147  -0.034212
| 16> 		O   -0.557422  -1.579286   0.012045
| 17> 		C    0.644693   0.362319   0.040635
| 18> 		C    1.836267  -0.131194  -0.037053
| 19> 		H   -1.732053   0.125353  -0.023594
| 20> 		H    0.483141   1.450521   0.034787
| 21> 		H    2.066890  -1.110030   0.159883
| 22> 		H    2.687343   0.390795   0.002791
| 23> *
| 24> 
| 25>                          ****END OF INPUT****
================================================================================

                       ****************************
                       * Single Point Calculation *
                       ****************************

---------------------------------
CARTESIAN COORDINATES (ANGSTROEM)
---------------------------------
  C     -0.612280   -0.442147   -0.034212
  O     -0.557422   -1.579286    0.012045
  C      0.644693    0.362319    0.040635
  C      1.836267   -0.131194   -0.037053
  H     -1.732053    0.125353   -0.023594
  H      0.483141    1.450521    0.034787
  H      2.066890   -1.110030    0.159883
  H      2.687343    0.390795    0.002791

----------------------------
CARTESIAN COORDINATES (A.U.)
----------------------------
  NO LB      ZA    FRAG     MASS         X           Y           Z
   0 C     6.0000    0    12.011   -1.157042   -0.835537   -0.064651
   1 O     8.0000    0    15.999   -1.053375   -2.984418    0.022762
   2 C     6.0000    0    12.011    1.218293    0.684684    0.076789
   3 C     6.0000    0    12.011    3.470042   -0.247921   -0.070020
   4 H     1.0000    0     1.008   -3.273106    0.236883   -0.044586
   5 H     1.0000    0     1.008    0.913004    2.741087    0.065738
   6 H     1.0000    0     1.008    3.905856   -2.097653    0.302135
   7 H     1.0000    0     1.008    5.078342    0.738496    0.005274

--------------------------------
INTERNAL COORDINATES (ANGSTROEM)
--------------------------------
 C      0   0   0     0.000000000000     0.00000000     0.00000000
 O      1   0   0     1.139400814259     0.00000000     0.00000000
 C      1   2   0     1.494238515530   119.65491093     0.00000000
 C      3   1   2     1.292067762925   124.55081850    10.49887036
 H      1   2   3     1.255412507287   119.58711947   186.51559543
 H      3   1   2     1.100144009033   114.12566201   182.69887157
 H      4   3   1     1.024739318618   124.11404685   338.25861390
 H      4   3   1     0.999194885011   125.70265188   179.42874247

---------------------------
INTERNAL COORDINATES (A.U.)
---------------------------
 C      0   0   0     0.000000000000     0.00000000     0.00000000
 O      1   0   0     2.153155495716     0.00000000     0.00000000
 C      1   2   0     2.823701573109   119.65491093     0.00000000
 C      3   1   2     2.441654218396   124.55081850    10.49887036
 H      1   2   3     2.372385823872   119.58711947   186.51559543
 H      3   1   2     2.078970884947   114.12566201   182.69887157
 H      4   3   1     1.936476670848   124.11404685   338.25861390
 H      4   3   1     1.888204687087   125.70265188   179.42874247

---------------------
BASIS SET INFORMATION
---------------------
There are 3 groups of distinct atoms

 Group   1 Type C   : 6s3p contracted to 2s1p pattern {33/3}
 Group   2 Type O   : 6s3p contracted to 2s1p pattern {33/3}
 Group   3 Type H   : 3s contracted to 1s pattern {3}

Atom   0C    basis set group =>   1
Atom   1O    basis set group =>   2
Atom   2C    basis set group =>   1
Atom   3C    basis set group =>   1
Atom   4H    basis set group =>   3
Atom   5H    basis set group =>   3
Atom   6H    basis set group =>   3
Atom   7H    basis set group =>   3
------------------------------------------------------------------------------
                           ORCA GTO INTEGRAL CALCULATION
------------------------------------------------------------------------------
------------------------------------------------------------------------------
                   ___                                                        
                  /   \      - P O W E R E D   B Y -                         
                 /     \                                                     
                 |  |  |   _    _      __       _____    __    __             
                 |  |  |  | |  | |    /  \     |  _  \  |  |  /  |          
                  \  \/   | |  | |   /    \    | | | |  |  | /  /          
                 / \  \   | |__| |  /  /\  \   | |_| |  |  |/  /          
                |  |  |   |  __  | /  /__\  \  |    /   |      \           
                |  |  |   | |  | | |   __   |  |    \   |  |\   \          
                \     /   | |  | | |  |  |  |  | |\  \  |  | \   \       
                 \___/    |_|  |_| |__|  |__|  |_| \__\ |__|  \__/        
                                                                              
                      - O R C A' S   B I G   F R I E N D -                    
                                      &                                       
                       - I N T E G R A L  F E E D E R -                       
                                                                              
 v1 FN, 2020, v2 2021                                                         
------------------------------------------------------------------------------


Reading SHARK input file acrolien.975.SHARKINP.tmp ... ok
----------------------
SHARK INTEGRAL PACKAGE
----------------------

Number of atoms                             ...      8
Number of basis functions                   ...     24
Number of shells                            ...     16
Maximum angular momentum                    ...      1
Integral batch strategy                     ... SHARK/LIBINT Hybrid
RI-J (if used) integral strategy            ... SPLIT-RIJ (Revised 2003 algorithm where possible)
Printlevel                                  ...      1
Contraction scheme used                     ... SEGMENTED contraction
Coulomb Range Separation                    ... NOT USED
Exchange Range Separation                   ... NOT USED
Finite Nucleus Model                        ... NOT USED
Auxiliary Coulomb fitting basis             ... NOT available
Auxiliary J/K fitting basis                 ... NOT available
Auxiliary Correlation fitting basis         ... NOT available
Auxiliary 'external' fitting basis          ... NOT available
Integral threshold                          ...     2.500000e-11
Primitive cut-off                           ...     2.500000e-12
Primitive pair pre-selection threshold      ...     2.500000e-12

Calculating pre-screening integrals         ... done (  0.0 sec) Dimension = 16
Organizing shell pair data                  ... done (  0.0 sec)
Shell pair information
Total number of shell pairs                 ...       136
Shell pairs after pre-screening             ...       133
Total number of primitive shell pairs       ...      1224
Primitive shell pairs kept                  ...      1003
          la=0 lb=0:     75 shell pairs
          la=1 lb=0:     48 shell pairs
          la=1 lb=1:     10 shell pairs

Calculating one electron integrals          ... done (  0.0 sec)
Calculating Nuclear repulsion               ... done (  0.3 sec) ENN=    107.009902378008 Eh
Calculating 4-index integrals               ... 
    -> SHARK/Ints2Disk: Thresh =     2.500000e-11 TCut=    2.500000e-12 
    -> calling libint FockFlag=2 Lmax_loc=1
    ->Total LIBINT loop time =    0.000 sec
    -> L=0 0 0 0:     0.003 sec done=      2827 (=100.0%) skipped=         0 
    -> L=1 0 0 0:     0.007 sec done=      3597 (=100.0%) skipped=         0 
    -> L=1 0 1 0:     0.004 sec done=      1176 (=100.0%) skipped=         0 
    -> L=1 1 0 0:     0.003 sec done=       750 (=100.0%) skipped=         0 
    -> L=1 1 1 0:     0.004 sec done=       480 (=100.0%) skipped=         0 
    -> L=1 1 1 1:     0.001 sec done=        55 (=100.0%) skipped=         0 
    ->Total SHARK integral loop time =    0.022 sec
    -> Total Integral generation matrix time =    0.029 sec
    -> Number of small integrals   =       518
    -> Number of medium integrals  =      2464
    -> Number of large integrals   =     40795
    -> Number of MB stored         =         0 MB


SHARK setup successfully completed in   1.7 seconds

Maximum memory used throughout the entire GTOINT-calculation: 29.5 MB
-------------------------------------------------------------------------------
                                 ORCA SCF
-------------------------------------------------------------------------------

------------
SCF SETTINGS
------------
Hamiltonian:
 Ab initio Hamiltonian  Method          .... Hartree-Fock(GTOs)


General Settings:
 Integral files         IntName         .... acrolien.975
 Hartree-Fock type      HFTyp           .... RHF
 Total Charge           Charge          ....    0
 Multiplicity           Mult            ....    1
 Number of Electrons    NEL             ....   30
 Basis Dimension        Dim             ....   24
 Nuclear Repulsion      ENuc            ....    107.0099023780 Eh

Convergence Acceleration:
 DIIS                   CNVDIIS         .... on
   Start iteration      DIISMaxIt       ....    12
   Startup error        DIISStart       ....  0.200000
   # of expansion vecs  DIISMaxEq       ....     5
   Bias factor          DIISBfac        ....   1.050
   Max. coefficient     DIISMaxC        ....  10.000
 Trust-Rad. Augm. Hess. CNVTRAH         .... auto
   Auto Start mean grad. ratio tolernc. ....  1.125000
   Auto Start start iteration           ....    20
   Auto Start num. interpolation iter.  ....    10
   Max. Number of Micro iterations      ....    16
   Max. Number of Macro iterations      .... Maxiter - #DIIS iter
   Number of Davidson start vectors     ....     2
   Converg. threshold I  (grad. norm)   ....   1.000e-05
   Converg. threshold II (energy diff.) ....   1.000e-08
   Grad. Scal. Fac. for Micro threshold ....   0.100
   Minimum threshold for Micro iter.    ....   0.010
   NR start threshold (gradient norm)   ....   0.001
   Initial trust radius                 ....   0.400
   Minimum AH scaling param. (alpha)    ....   1.000
   Maximum AH scaling param. (alpha)    .... 1000.000
   Orbital update algorithm             .... Taylor
   White noise on init. David. guess    .... on
   Maximum white noise                  ....   0.010
   Quad. conv. algorithm                .... NR
 SOSCF                  CNVSOSCF        .... on
   Start iteration      SOSCFMaxIt      ....   150
   Startup grad/error   SOSCFStart      ....  0.003300
 Level Shifting         CNVShift        .... on
   Level shift para.    LevelShift      ....    0.2500
   Turn off err/grad.   ShiftErr        ....    0.0010
 Zerner damping         CNVZerner       .... off
 Static damping         CNVDamp         .... on
   Fraction old density DampFac         ....    0.7000
   Max. Damping (<1)    DampMax         ....    0.9800
   Min. Damping (>=0)   DampMin         ....    0.0000
   Turn off err/grad.   DampErr         ....    0.1000
 Fernandez-Rico         CNVRico         .... off

SCF Procedure:
 Maximum # iterations   MaxIter         ....   500
 SCF integral mode      SCFMode         .... Conventional
 Integral Threshold     Thresh          ....  2.500e-11 Eh
 Primitive CutOff       TCut            ....  2.500e-12 Eh
 Integral Buffer length BufferLength    .... 1048576
 Integral index format  IndFormat       ....     0
 Integral value format  ValFormat       ....     0
 Integral Storage       Thresh          ....  2.500e-11 Eh

Convergence Tolerance:
 Convergence Check Mode ConvCheckMode   .... Total+1el-Energy
 Convergence forced     ConvForced      .... 1
 Energy Change          TolE            ....  1.000e-08 Eh
 1-El. energy change                    ....  1.000e-05 Eh
 Orbital Gradient       TolG            ....  1.000e-05
 Orbital Rotation angle TolX            ....  1.000e-05
 DIIS Error             TolErr          ....  5.000e-07


Diagonalization of the overlap matrix:
Smallest eigenvalue                        ... 1.654e-01
Time for diagonalization                   ...    0.000 sec
Threshold for overlap eigenvalues          ... 1.000e-08
Number of eigenvalues below threshold      ... 0
Time for construction of square roots      ...    0.294 sec
Total time needed                          ...    0.294 sec

--------------------------------
INITIAL GUESS: MINIMAL BASIS EHT
--------------------------------
The minimal basis has 24 functions
EHT matrix was diagonalized
Basis set overlap was calculated now projecting the orbitals
Using GuessMode=FMatrix for the initial guess
C*T matrix was formed
Effective Fockian was calculated
Effective Fockian was diagonalized
Initial density was built
                      ------------------
                      INITIAL GUESS DONE
                      ------------------

 InCore treatment chosen:
   Memory dedicated               ...    1024 MB
   Memory needed                  ...      0 MB
   Number of tiny    integrals    ...     518
   Number of small   integrals    ...    2464
   Number of regular integrals    ...   40795

--------------
SCF ITERATIONS
--------------
ITER       Energy         Delta-E        Max-DP      RMS-DP      [F,P]     Damp
  0   -188.9597376505   0.000000000000 0.12374187  0.01332271  0.3076154 0.7000
  1   -189.0810233866  -0.121285736076 0.10365426  0.01074305  0.2054511 0.7000
                               ***Turning on DIIS***
  2   -189.1636170204  -0.082593633771 0.06667188  0.00727487  0.1427701 0.7000
  3   -189.1909618742  -0.027344853810 0.03626683  0.00476255  0.1029116 0.7000
  4   -189.2221293025  -0.031167428319 0.09649018  0.01186548  0.0726334 0.0000
  5   -189.3563503067  -0.134221004208 0.00953528  0.00112116  0.0075778 0.0000
                      *** Initiating the SOSCF procedure ***
                           *** Shutting down DIIS ***
                      *** Re-Reading the Fockian *** 
                      *** Removing any level shift *** 
ITER      Energy       Delta-E        Grad      Rot      Max-DP    RMS-DP
  6   -189.35773978  -0.0013894705  0.001434  0.001434  0.002623  0.000370
  7   -189.35772309   0.0000166843  0.000661  0.001181  0.001594  0.000206
  8   -189.35772963  -0.0000065405  0.000281  0.000937  0.001349  0.000151
  9   -189.35773103  -0.0000013993  0.000124  0.000134  0.000261  0.000028
 10   -189.35773115  -0.0000001180  0.000036  0.000045  0.000079  0.000011
 11   -189.35773117  -0.0000000151  0.000008  0.000021  0.000051  0.000005
 12   -189.35773117  -0.0000000021  0.000003  0.000002  0.000007  0.000001
                 **** Energy Check signals convergence ****
              ***Rediagonalizing the Fockian in SOSCF/NRSCF***

               *****************************************************
               *                     SUCCESS                       *
               *           SCF CONVERGED AFTER  13 CYCLES          *
               *****************************************************


----------------
TOTAL SCF ENERGY
----------------

Total Energy       :         -189.35773117 Eh           -5152.68582 eV

Components:
Nuclear Repulsion  :          107.00990238 Eh            2911.88748 eV
Electronic Energy  :         -296.36763355 Eh           -8064.57330 eV
One Electron Energy:         -468.38400056 Eh          -12745.37662 eV
Two Electron Energy:          172.01636702 Eh            4680.80331 eV

Virial components:
Potential Energy   :         -378.67863207 Eh          -10304.36944 eV
Kinetic Energy     :          189.32090090 Eh            5151.68362 eV
Virial Ratio       :            2.00019454


---------------
SCF CONVERGENCE
---------------

  Last Energy change         ...   -8.8278e-11  Tolerance :   1.0000e-08
  Last MAX-Density change    ...    4.3469e-06  Tolerance :   1.0000e-07
  Last RMS-Density change    ...    4.1955e-07  Tolerance :   5.0000e-09
  Last Orbital Gradient      ...    9.4520e-07  Tolerance :   1.0000e-05
  Last Orbital Rotation      ...    1.6408e-06  Tolerance :   1.0000e-05

             **** THE GBW FILE WAS UPDATED (acrolien.975.gbw) ****
             **** DENSITY acrolien.975.scfp WAS UPDATED ****
             **** ENERGY FILE WAS UPDATED (acrolien.975.en.tmp) ****
             **** THE GBW FILE WAS UPDATED (acrolien.975.gbw) ****
             **** DENSITY acrolien.975.scfp WAS UPDATED ****
----------------
ORBITAL ENERGIES
----------------

  NO   OCC          E(Eh)            E(eV) 
   0   2.0000     -20.388382      -554.7961 
   1   2.0000     -11.313804      -307.8643 
   2   2.0000     -11.195900      -304.6559 
   3   2.0000     -11.192563      -304.5651 
   4   2.0000      -1.461481       -39.7689 
   5   2.0000      -1.092137       -29.7185 
   6   2.0000      -0.890658       -24.2360 
   7   2.0000      -0.748487       -20.3674 
   8   2.0000      -0.714535       -19.4435 
   9   2.0000      -0.639721       -17.4077 
  10   2.0000      -0.614031       -16.7086 
  11   2.0000      -0.576225       -15.6799 
  12   2.0000      -0.534391       -14.5415 
  13   2.0000      -0.413967       -11.2646 
  14   2.0000      -0.399354       -10.8670 
  15   0.0000       0.146035         3.9738 
  16   0.0000       0.324312         8.8250 
  17   0.0000       0.459416        12.5013 
  18   0.0000       0.625079        17.0093 
  19   0.0000       0.656468        17.8634 
  20   0.0000       0.803658        21.8687 
  21   0.0000       0.940295        25.5867 
  22   0.0000       0.956473        26.0270 
  23   0.0000       1.110116        30.2078 

                    ********************************
                    * MULLIKEN POPULATION ANALYSIS *
                    ********************************

-----------------------
MULLIKEN ATOMIC CHARGES
-----------------------
   0 C :    0.202744
   1 O :   -0.364764
   2 C :   -0.158077
   3 C :   -0.258651
   4 H :    0.132833
   5 H :    0.141626
   6 H :    0.157426
   7 H :    0.146862
Sum of atomic charges:   -0.0000000

--------------------------------
MULLIKEN REDUCED ORBITAL CHARGES
--------------------------------
  0 C s       :     3.062407  s :     3.062407
      pz      :     0.848836  p :     2.734849
      px      :     1.050115
      py      :     0.835898
  1 O s       :     3.811649  s :     3.811649
      pz      :     1.180036  p :     4.553115
      px      :     1.886971
      py      :     1.486108
  2 C s       :     3.080731  s :     3.080731
      pz      :     1.010130  p :     3.077346
      px      :     0.995774
      py      :     1.071442
  3 C s       :     3.098184  s :     3.098184
      pz      :     0.957184  p :     3.160466
      px      :     1.076139
      py      :     1.127143
  4 H s       :     0.867167  s :     0.867167
  5 H s       :     0.858374  s :     0.858374
  6 H s       :     0.842574  s :     0.842574
  7 H s       :     0.853138  s :     0.853138


                     *******************************
                     * LOEWDIN POPULATION ANALYSIS *
                     *******************************

----------------------
LOEWDIN ATOMIC CHARGES
----------------------
   0 C :    0.147273
   1 O :   -0.242603
   2 C :   -0.113729
   3 C :   -0.148528
   4 H :    0.079490
   5 H :    0.090301
   6 H :    0.098510
   7 H :    0.089287

-------------------------------
LOEWDIN REDUCED ORBITAL CHARGES
-------------------------------
  0 C s       :     3.001299  s :     3.001299
      pz      :     0.854406  p :     2.851428
      px      :     1.054059
      py      :     0.942963
  1 O s       :     3.651660  s :     3.651660
      pz      :     1.175513  p :     4.590943
      px      :     1.889343
      py      :     1.526087
  2 C s       :     2.969093  s :     2.969093
      pz      :     1.008097  p :     3.144636
      px      :     1.056823
      py      :     1.079716
  3 C s       :     2.956869  s :     2.956869
      pz      :     0.958708  p :     3.191659
      px      :     1.104659
      py      :     1.128292
  4 H s       :     0.920510  s :     0.920510
  5 H s       :     0.909699  s :     0.909699
  6 H s       :     0.901490  s :     0.901490
  7 H s       :     0.910713  s :     0.910713


                      *****************************
                      * MAYER POPULATION ANALYSIS *
                      *****************************

  NA   - Mulliken gross atomic population
  ZA   - Total nuclear charge
  QA   - Mulliken gross atomic charge
  VA   - Mayer's total valence
  BVA  - Mayer's bonded valence
  FA   - Mayer's free valence

  ATOM       NA         ZA         QA         VA         BVA        FA
  0 C      5.7973     6.0000     0.2027     3.8384     3.8384     0.0000
  1 O      8.3648     8.0000    -0.3648     2.0908     2.0908    -0.0000
  2 C      6.1581     6.0000    -0.1581     3.9770     3.9770    -0.0000
  3 C      6.2587     6.0000    -0.2587     3.9521     3.9521    -0.0000
  4 H      0.8672     1.0000     0.1328     0.9824     0.9824    -0.0000
  5 H      0.8584     1.0000     0.1416     0.9799     0.9799    -0.0000
  6 H      0.8426     1.0000     0.1574     0.9752     0.9752    -0.0000
  7 H      0.8531     1.0000     0.1469     0.9784     0.9784    -0.0000

  Mayer bond orders larger than 0.100000
B(  0-C ,  1-O ) :   1.9321 B(  0-C ,  2-C ) :   0.9916 B(  0-C ,  4-H ) :   0.8977 
B(  2-C ,  3-C ) :   1.9737 B(  2-C ,  5-H ) :   0.9578 B(  3-C ,  6-H ) :   0.9589 
B(  3-C ,  7-H ) :   0.9638 

-------
TIMINGS
-------

Total SCF time: 0 days 0 hours 0 min 4 sec 

Total time                  ....       4.305 sec
Sum of individual times     ....       0.861 sec  ( 20.0%)

Fock matrix formation       ....       0.106 sec  (  2.5%)
Diagonalization             ....       0.217 sec  (  5.0%)
Density matrix formation    ....       0.000 sec  (  0.0%)
Population analysis         ....       0.532 sec  ( 12.4%)
Initial guess               ....       0.002 sec  (  0.0%)
Orbital Transformation      ....       0.000 sec  (  0.0%)
Orbital Orthonormalization  ....       0.000 sec  (  0.0%)
DIIS solution               ....       0.002 sec  (  0.0%)
SOSCF solution              ....       0.003 sec  (  0.1%)

Maximum memory used throughout the entire SCF-calculation: 225.0 MB
------------------------------------------------------------------------------
                         ORCA CIS CALCULATION
------------------------------------------------------------------------------

Input orbitals are from        ... acrolien.975.gbw
CI-vector output               ... acrolien.975.cis
Tamm-Dancoff approximation     ... operative
CIS-Integral strategy          ... AO-integrals
Integral handling              ... AO integral Conventional
Reference state                ... RHF
Generation of triplets         ... off
Follow IRoot                   ... off
Number of operators            ... 1
Orbital ranges used for CIS calculation:
 Operator 0:  Orbitals   4... 14  to  15... 23
XAS localization array:
 Operator 0:  Orbitals  -1... -1

------------------------
DAVIDSON-DIAGONALIZATION
------------------------

Dimension of the eigenvalue problem            ...     99
Number of roots to be determined               ...      1
Maximum size of the expansion space            ...     10
Maximum number of iterations                   ...    100
Convergence tolerance for the residual         ...    2.500e-07
Convergence tolerance for the energies         ...    2.500e-07
Orthogonality tolerance                        ...    1.000e-14
Level Shift                                    ...    0.000e+00
Constructing the preconditioner                ... o.k.
Building the initial guess                     ... o.k.
Number of trial vectors determined             ...     10


                       ****Iteration    0****

   Memory handling for direct AO based CIS:
   Memory per vector needed      ...     1 MB
   Memory needed                 ...     0 MB
   Memory available              ...   512 MB
   Number of vectors per batch   ...   512
   Number of batches             ...     1
   Time for densities:            0.001
   SHARK[4]
   Time for Sigma-Completion:     0.000
   Size of expansion space: 3
   Lowest Energy          :     0.222211467233
   Maximum Energy change  :     0.222211467233 (vector 0)
   Maximum residual norm  :     0.013981993908

                       ****Iteration    1****
   Time for densities:            0.000
   SHARK[4]
   Time for Sigma-Completion:     0.000
   Size of expansion space: 4
   Lowest Energy          :     0.168401421389
   Maximum Energy change  :     0.053810045844 (vector 0)
   Maximum residual norm  :     0.001746602578

                       ****Iteration    2****
   Time for densities:            0.000
   SHARK[4]
   Time for Sigma-Completion:     0.000
   Size of expansion space: 5
   Lowest Energy          :     0.164149453065
   Maximum Energy change  :     0.004251968324 (vector 0)
   Maximum residual norm  :     0.000136426619

                       ****Iteration    3****
   Time for densities:            0.000
   SHARK[4]
   Time for Sigma-Completion:     0.000
   Size of expansion space: 6
   Lowest Energy          :     0.163948773236
   Maximum Energy change  :     0.000200679829 (vector 0)
   Maximum residual norm  :     0.000013003243

                       ****Iteration    4****
   Time for densities:            0.000
   SHARK[4]
   Time for Sigma-Completion:     0.000
   Size of expansion space: 7
   Lowest Energy          :     0.163928566795
   Maximum Energy change  :     0.000020206441 (vector 0)
   Maximum residual norm  :     0.000001361194

                       ****Iteration    5****
   Time for densities:            0.000
   SHARK[4]
   Time for Sigma-Completion:     0.000
   Size of expansion space: 8
   Lowest Energy          :     0.163926482227
   Maximum Energy change  :     0.000002084567 (vector 0)
   Maximum residual norm  :     0.000000108907

      *** CONVERGENCE OF RESIDUAL NORM REACHED ***

Storing the converged CI vectors               ... acrolien.975.cis1

                 *** DAVIDSON DONE ***

Total time for solving the CIS problem:     0.740sec

-----------------------------
CIS-EXCITED STATES (SINGLETS)
-----------------------------

the weight of the individual excitations are printed if larger than 1.0e-02

STATE  1:  E=   0.163926 au      4.461 eV    35977.7 cm**-1 <S**2> =   0.000000
     8a ->  15a  :     0.010111 (c=  0.10055568)
    10a ->  15a  :     0.010154 (c=  0.10076495)
    13a ->  15a  :     0.038835 (c=  0.19706495)
    14a ->  15a  :     0.738816 (c=  0.85954415)
    14a ->  16a  :     0.159899 (c=  0.39987415)


----------------------
CIS-EXCITATION SPECTRA
----------------------

Center of mass = (  0.5750, -0.9080,  0.0000)
Calculating the Dipole integrals                  ... done
Transforming integrals                            ... done
Calculating the Linear Momentum integrals         ... done
Transforming integrals                            ... done
Calculating angular momentum integrals            ... done
Transforming integrals                            ... done

-----------------------------------------------------------------------------
         ABSORPTION SPECTRUM VIA TRANSITION ELECTRIC DIPOLE MOMENTS
-----------------------------------------------------------------------------
State   Energy    Wavelength  fosc         T2        TX        TY        TZ  
        (cm-1)      (nm)                 (au**2)    (au)      (au)      (au) 
-----------------------------------------------------------------------------
   1   35977.7    277.9   0.000311602   0.00285   0.05319  -0.00248  -0.00396

-----------------------------------------------------------------------------
         ABSORPTION SPECTRUM VIA TRANSITION VELOCITY DIPOLE MOMENTS
-----------------------------------------------------------------------------
State   Energy    Wavelength   fosc        P2         PX        PY        PZ  
        (cm-1)      (nm)                 (au**2)     (au)      (au)      (au) 
-----------------------------------------------------------------------------
   1   35977.7    277.9   0.000827808   0.00020  -0.00669  -0.00207   0.01243

-------------------------------------------------------------------
                             CD SPECTRUM
-------------------------------------------------------------------
State  Energy     Wavelength     R         MX        MY        MZ   
       (cm-1)       (nm)     (1e40*cgs)   (au)      (au)      (au)  
-------------------------------------------------------------------
   1   35977.7    277.9     -0.10770  -0.02654  -0.47891   0.00099

-------------------------------------------------------------------
         CD SPECTRUM VIA TRANSITION VELOCITY DIPOLE MOMENTS        
-------------------------------------------------------------------
State  Energy     Wavelength     R         MX        MY        MZ   
       (cm-1)       (nm)     (1e40*cgs)   (au)      (au)      (au)  
-------------------------------------------------------------------
   1   35977.7    277.9      3.39597  -0.02654  -0.47891   0.00099

Total run time:        1.493 sec

           *** ORCA-CIS/TD-DFT FINISHED WITHOUT ERROR ***

Maximum memory used throughout the entire CIS-calculation: 51.7 MB

-----------------------
CIS/TD-DFT TOTAL ENERGY
-----------------------

    E(SCF)  =   -189.357731168 Eh
    DE(CIS) =      0.163926482 Eh (Root  1)
    ----------------------------- ---------
    E(tot)  =   -189.193804686 Eh



-------------------------------------------------------------------------------
                          DFT DISPERSION CORRECTION                            
                                                                               
                              DFTD3 V3.1  Rev 1                                
                          USING Becke-Johnson damping                          
-------------------------------------------------------------------------------
Hartree-Fock is recognized
Active option DFTDOPT                   ...         4   

molecular C6(AA) [au] = 662.099869 


            DFT-D V3
 parameters
 using HF/MINIX parameters
 s6 scaling factor         :     1.0000 
 a1 scaling factor         :     0.4171 
 s8 scaling factor         :     0.8777 
 a2 scaling factor         :     2.9149 
 ad hoc parameters k1-k3   :    16.0000     1.3333    -4.0000 

 Edisp/kcal,au: -16.178467484172  -0.025782026291 
 E6   /kcal   :  -8.954504115 
 E8   /kcal   :  -7.223963369 
 % E8         :  44.651716092 

-------------------------   ----------------
Dispersion correction           -0.025782026
-------------------------   ----------------

------------------   -----------------
gCP+bas correction        -0.069506732
------------------   -----------------
----------------------------   ----------------
Total correction to HF/MINIX       -0.095288759
----------------------------   ----------------


-------------------------   --------------------
FINAL SINGLE POINT ENERGY      -189.289093444446
-------------------------   --------------------


                            ***************************************
                            *     ORCA property calculations      *
                            ***************************************

                                    ---------------------
                                    Active property flags
                                    ---------------------
   (+) Dipole Moment


------------------------------------------------------------------------------
                       ORCA ELECTRIC PROPERTIES CALCULATION
------------------------------------------------------------------------------

Dipole Moment Calculation                       ... on
Quadrupole Moment Calculation                   ... off
Polarizability Calculation                      ... off
GBWName                                         ... acrolien.975.gbw
Electron density                                ... acrolien.975.scfp
The origin for moment calculation is the CENTER OF MASS  = ( 0.575030, -0.907991  0.000002)

-------------
DIPOLE MOMENT
-------------
                                X             Y             Z
Electronic contribution:     -2.02199      -1.70994      -0.14157
Nuclear contribution   :      2.13394       2.59056       0.16329
                        -----------------------------------------
Total Dipole Moment    :      0.11195       0.88061       0.02172
                        -----------------------------------------
Magnitude (a.u.)       :      0.88797
Magnitude (Debye)      :      2.25704



--------------------
Rotational spectrum 
--------------------
 
Rotational constants in cm-1:     0.809529     0.214527     0.169860 
Rotational constants in MHz : 24269.077255  6431.350992  5092.280332 

 Dipole components along the rotational axes: 
x,y,z [a.u.] :     0.529292     0.712615     0.022746 
x,y,z [Debye]:     1.345352     1.811323     0.057817 

 

Timings for individual modules:

Sum of individual times         ...        9.141 sec (=   0.152 min)
GTO integral calculation        ...        2.528 sec (=   0.042 min)  27.7 %
SCF iterations                  ...        4.808 sec (=   0.080 min)  52.6 %
CIS module                      ...        1.805 sec (=   0.030 min)  19.8 %
                             ****ORCA TERMINATED NORMALLY****
TOTAL RUN TIME: 0 days 0 hours 0 minutes 10 seconds 990 msec
