
                                 *****************
                                 * O   R   C   A *
                                 *****************

                                            #,                                       
                                            ###                                      
                                            ####                                     
                                            #####                                    
                                            ######                                   
                                           ########,                                 
                                     ,,################,,,,,                         
                               ,,#################################,,                 
                          ,,##########################################,,             
                       ,#########################################, ''#####,          
                    ,#############################################,,   '####,        
                  ,##################################################,,,,####,       
                ,###########''''           ''''###############################       
              ,#####''   ,,,,##########,,,,          '''####'''          '####       
            ,##' ,,,,###########################,,,                        '##       
           ' ,,###''''                  '''############,,,                           
         ,,##''                                '''############,,,,        ,,,,,,###''
      ,#''                                            '''#######################'''  
     '                                                          ''''####''''         
             ,#######,   #######,   ,#######,      ##                                
            ,#'     '#,  ##    ##  ,#'     '#,    #''#        ######   ,####,        
            ##       ##  ##   ,#'  ##            #'  '#       #        #'  '#        
            ##       ##  #######   ##           ,######,      #####,   #    #        
            '#,     ,#'  ##    ##  '#,     ,#' ,#      #,         ##   #,  ,#        
             '#######'   ##     ##  '#######'  #'      '#     #####' # '####'        



                  #######################################################
                  #                        -***-                        #
                  #          Department of theory and spectroscopy      #
                  #    Directorship and core code : Frank Neese         #
                  #        Max Planck Institute fuer Kohlenforschung    #
                  #                Kaiser Wilhelm Platz 1               #
                  #                 D-45470 Muelheim/Ruhr               #
                  #                      Germany                        #
                  #                                                     #
                  #                  All rights reserved                #
                  #                        -***-                        #
                  #######################################################


                         Program Version 5.0.3 -  RELEASE  -


 With contributions from (in alphabetic order):
   Daniel Aravena         : Magnetic Suceptibility
   Michael Atanasov       : Ab Initio Ligand Field Theory (pilot matlab implementation)
   Alexander A. Auer      : GIAO ZORA, VPT2 properties, NMR spectrum
   Ute Becker             : Parallelization
   Giovanni Bistoni       : ED, misc. LED, open-shell LED, HFLD
   Martin Brehm           : Molecular dynamics
   Dmytro Bykov           : SCF Hessian
   Vijay G. Chilkuri      : MRCI spin determinant printing, contributions to CSF-ICE
   Dipayan Datta          : RHF DLPNO-CCSD density
   Achintya Kumar Dutta   : EOM-CC, STEOM-CC
   Dmitry Ganyushin       : Spin-Orbit,Spin-Spin,Magnetic field MRCI
   Miquel Garcia          : C-PCM and meta-GGA Hessian, CC/C-PCM, Gaussian charge scheme
   Yang Guo               : DLPNO-NEVPT2, F12-NEVPT2, CIM, IAO-localization
   Andreas Hansen         : Spin unrestricted coupled pair/coupled cluster methods
   Benjamin Helmich-Paris : MC-RPA, TRAH-SCF, COSX integrals
   Lee Huntington         : MR-EOM, pCC
   Robert Izsak           : Overlap fitted RIJCOSX, COSX-SCS-MP3, EOM
   Marcus Kettner         : VPT2
   Christian Kollmar      : KDIIS, OOCD, Brueckner-CCSD(T), CCSD density, CASPT2, CASPT2-K
   Simone Kossmann        : Meta GGA functionals, TD-DFT gradient, OOMP2, MP2 Hessian
   Martin Krupicka        : Initial AUTO-CI
   Lucas Lang             : DCDCAS
   Marvin Lechner         : AUTO-CI (C++ implementation), FIC-MRCC
   Dagmar Lenk            : GEPOL surface, SMD
   Dimitrios Liakos       : Extrapolation schemes; Compound Job, initial MDCI parallelization
   Dimitrios Manganas     : Further ROCIS development; embedding schemes
   Dimitrios Pantazis     : SARC Basis sets
   Anastasios Papadopoulos: AUTO-CI, single reference methods and gradients
   Taras Petrenko         : DFT Hessian,TD-DFT gradient, ASA, ECA, R-Raman, ABS, FL, XAS/XES, NRVS
   Peter Pinski           : DLPNO-MP2, DLPNO-MP2 Gradient
   Christoph Reimann      : Effective Core Potentials
   Marius Retegan         : Local ZFS, SOC
   Christoph Riplinger    : Optimizer, TS searches, QM/MM, DLPNO-CCSD(T), (RO)-DLPNO pert. Triples
   Tobias Risthaus        : Range-separated hybrids, TD-DFT gradient, RPA, STAB
   Michael Roemelt        : Original ROCIS implementation
   Masaaki Saitow         : Open-shell DLPNO-CCSD energy and density
   Barbara Sandhoefer     : DKH picture change effects
   Avijit Sen             : IP-ROCIS
   Kantharuban Sivalingam : CASSCF convergence, NEVPT2, FIC-MRCI
   Bernardo de Souza      : ESD, SOC TD-DFT
   Georgi Stoychev        : AutoAux, RI-MP2 NMR, DLPNO-MP2 response
   Willem Van den Heuvel  : Paramagnetic NMR
   Boris Wezisla          : Elementary symmetry handling
   Frank Wennmohs         : Technical directorship


 We gratefully acknowledge several colleagues who have allowed us to
 interface, adapt or use parts of their codes:
   Stefan Grimme, W. Hujo, H. Kruse, P. Pracht,  : VdW corrections, initial TS optimization,
                  C. Bannwarth, S. Ehlert          DFT functionals, gCP, sTDA/sTD-DF
   Ed Valeev, F. Pavosevic, A. Kumar             : LibInt (2-el integral package), F12 methods
   Garnet Chan, S. Sharma, J. Yang, R. Olivares  : DMRG
   Ulf Ekstrom                                   : XCFun DFT Library
   Mihaly Kallay                                 : mrcc  (arbitrary order and MRCC methods)
   Jiri Pittner, Ondrej Demel                    : Mk-CCSD
   Frank Weinhold                                : gennbo (NPA and NBO analysis)
   Christopher J. Cramer and Donald G. Truhlar   : smd solvation model
   Lars Goerigk                                  : TD-DFT with DH, B97 family of functionals
   V. Asgeirsson, H. Jonsson                     : NEB implementation
   FAccTs GmbH                                   : IRC, NEB, NEB-TS, DLPNO-Multilevel, CI-OPT
                                                   MM, QMMM, 2- and 3-layer-ONIOM, Crystal-QMMM,
                                                   LR-CPCM, SF, NACMEs, symmetry and pop. for TD-DFT,
                                                   nearIR, NL-DFT gradient (VV10), updates on ESD,
                                                   ML-optimized integration grids
   S Lehtola, MJT Oliveira, MAL Marques          : LibXC Library
   Liviu Ungur et al                             : ANISO software


 Your calculation uses the libint2 library for the computation of 2-el integrals
 For citations please refer to: http://libint.valeyev.net

 Your ORCA version has been built with support for libXC version: 5.1.0
 For citations please refer to: https://tddft.org/programs/libxc/

 This ORCA versions uses:
   CBLAS   interface :  Fast vector & matrix operations
   LAPACKE interface :  Fast linear algebra routines
   SCALAPACK package :  Parallel linear algebra routines
   Shared memory     :  Shared parallel matrices
   BLAS/LAPACK       :  OpenBLAS 0.3.15  USE64BITINT DYNAMIC_ARCH NO_AFFINITY Haswell SINGLE_THREADED
        Core in use  :  Haswell
   Copyright (c) 2011-2014, The OpenBLAS Project


Your calculation utilizes the geometrical counterpoise correction gCP
Please cite in your paper:
H.Kruse, S. Grimme J.Chem.Phys., 136, (2012), 154101 
   

Your calculation utilizes the atom-pairwise dispersion correction
with the Becke-Johnson damping scheme (D3BJ)
Cite in your paper:
S.Grimme, S.Ehrlich, L.Goerigk, J Comput Chem, (2011), 32, 1456–1465 
S.Grimme, J.Antony, S.Ehrlich and H.Krieg, J.Chem.Phys., 132, (2010), 154104 
   

================================================================================

----- Orbital basis set information -----
Your calculation utilizes the basis: MINIX,
   a combination of small basis sets by S. Grimme (see manual for definitions).

================================================================================
                                        WARNINGS
                       Please study these warnings very carefully!
================================================================================

INFO   : Checking CIS options ...

INFO   : the flag for use of the SHARK integral package has been found!

================================================================================
                                       INPUT FILE
================================================================================
NAME = acrolien.602.com
|  1> ! HF-3c
|  2> !TightSCF
|  3> %scf
|  4>  ConvForced true
|  5>  convergence tight
|  6>  MaxIter 500
|  7> end
|  8>  
|  9> %tddft 
| 10>  nroots 1
| 11> end
| 12> 
| 13> # 	14091
| 14> * xyz 0 1
| 15> 		C   -1.297647  -0.274212  -0.022990
| 16> 		O   -1.645178  -1.058397  -0.808291
| 17> 		C    0.017446   0.451487  -0.180347
| 18> 		C    1.211534   0.036088   0.241151
| 19> 		H   -1.614554  -0.347769   0.986203
| 20> 		H   -0.041625   1.462953  -0.927998
| 21> 		H    1.257560  -0.935960   0.803137
| 22> 		H    2.142177   0.657934  -0.064412
| 23> *
| 24> 
| 25>                          ****END OF INPUT****
================================================================================

                       ****************************
                       * Single Point Calculation *
                       ****************************

---------------------------------
CARTESIAN COORDINATES (ANGSTROEM)
---------------------------------
  C     -1.297647   -0.274212   -0.022990
  O     -1.645178   -1.058397   -0.808291
  C      0.017446    0.451487   -0.180347
  C      1.211534    0.036088    0.241151
  H     -1.614554   -0.347769    0.986203
  H     -0.041625    1.462953   -0.927998
  H      1.257560   -0.935960    0.803137
  H      2.142177    0.657934   -0.064412

----------------------------
CARTESIAN COORDINATES (A.U.)
----------------------------
  NO LB      ZA    FRAG     MASS         X           Y           Z
   0 C     6.0000    0    12.011   -2.452197   -0.518186   -0.043445
   1 O     8.0000    0    15.999   -3.108936   -2.000080   -1.527449
   2 C     6.0000    0    12.011    0.032968    0.853187   -0.340806
   3 C     6.0000    0    12.011    2.289467    0.068196    0.455709
   4 H     1.0000    0     1.008   -3.051065   -0.657188    1.863654
   5 H     1.0000    0     1.008   -0.078660    2.764581   -1.753662
   6 H     1.0000    0     1.008    2.376444   -1.768708    1.517709
   7 H     1.0000    0     1.008    4.048128    1.243315   -0.121721

--------------------------------
INTERNAL COORDINATES (ANGSTROEM)
--------------------------------
 C      0   0   0     0.000000000000     0.00000000     0.00000000
 O      1   0   0     1.162936615120     0.00000000     0.00000000
 C      1   2   0     1.510254899909   120.92269861     0.00000000
 C      3   1   2     1.332690153392   126.68989028   272.99038380
 H      1   2   3     1.060335413983   120.43832503   207.99350345
 H      3   1   2     1.259180237296   114.01648839    83.95937193
 H      4   3   1     1.123754408746   117.67700378   357.80690354
 H      4   3   1     1.160240314820   117.92637820   173.26607492

---------------------------
INTERNAL COORDINATES (A.U.)
---------------------------
 C      0   0   0     0.000000000000     0.00000000     0.00000000
 O      1   0   0     2.197631713686     0.00000000     0.00000000
 C      1   2   0     2.853968153241   120.92269861     0.00000000
 C      3   1   2     2.518419411285   126.68989028   272.99038380
 H      1   2   3     2.003743542526   120.43832503   207.99350345
 H      3   1   2     2.379505801736   114.01648839    83.95937193
 H      4   3   1     2.123588074316   117.67700378   357.80690354
 H      4   3   1     2.192536444545   117.92637820   173.26607492

---------------------
BASIS SET INFORMATION
---------------------
There are 3 groups of distinct atoms

 Group   1 Type C   : 6s3p contracted to 2s1p pattern {33/3}
 Group   2 Type O   : 6s3p contracted to 2s1p pattern {33/3}
 Group   3 Type H   : 3s contracted to 1s pattern {3}

Atom   0C    basis set group =>   1
Atom   1O    basis set group =>   2
Atom   2C    basis set group =>   1
Atom   3C    basis set group =>   1
Atom   4H    basis set group =>   3
Atom   5H    basis set group =>   3
Atom   6H    basis set group =>   3
Atom   7H    basis set group =>   3
------------------------------------------------------------------------------
                           ORCA GTO INTEGRAL CALCULATION
------------------------------------------------------------------------------
------------------------------------------------------------------------------
                   ___                                                        
                  /   \      - P O W E R E D   B Y -                         
                 /     \                                                     
                 |  |  |   _    _      __       _____    __    __             
                 |  |  |  | |  | |    /  \     |  _  \  |  |  /  |          
                  \  \/   | |  | |   /    \    | | | |  |  | /  /          
                 / \  \   | |__| |  /  /\  \   | |_| |  |  |/  /          
                |  |  |   |  __  | /  /__\  \  |    /   |      \           
                |  |  |   | |  | | |   __   |  |    \   |  |\   \          
                \     /   | |  | | |  |  |  |  | |\  \  |  | \   \       
                 \___/    |_|  |_| |__|  |__|  |_| \__\ |__|  \__/        
                                                                              
                      - O R C A' S   B I G   F R I E N D -                    
                                      &                                       
                       - I N T E G R A L  F E E D E R -                       
                                                                              
 v1 FN, 2020, v2 2021                                                         
------------------------------------------------------------------------------


Reading SHARK input file acrolien.602.SHARKINP.tmp ... ok
----------------------
SHARK INTEGRAL PACKAGE
----------------------

Number of atoms                             ...      8
Number of basis functions                   ...     24
Number of shells                            ...     16
Maximum angular momentum                    ...      1
Integral batch strategy                     ... SHARK/LIBINT Hybrid
RI-J (if used) integral strategy            ... SPLIT-RIJ (Revised 2003 algorithm where possible)
Printlevel                                  ...      1
Contraction scheme used                     ... SEGMENTED contraction
Coulomb Range Separation                    ... NOT USED
Exchange Range Separation                   ... NOT USED
Finite Nucleus Model                        ... NOT USED
Auxiliary Coulomb fitting basis             ... NOT available
Auxiliary J/K fitting basis                 ... NOT available
Auxiliary Correlation fitting basis         ... NOT available
Auxiliary 'external' fitting basis          ... NOT available
Integral threshold                          ...     2.500000e-11
Primitive cut-off                           ...     2.500000e-12
Primitive pair pre-selection threshold      ...     2.500000e-12

Calculating pre-screening integrals         ... done (  0.0 sec) Dimension = 16
Organizing shell pair data                  ... done (  0.3 sec)
Shell pair information
Total number of shell pairs                 ...       136
Shell pairs after pre-screening             ...       133
Total number of primitive shell pairs       ...      1224
Primitive shell pairs kept                  ...       984
          la=0 lb=0:     75 shell pairs
          la=1 lb=0:     48 shell pairs
          la=1 lb=1:     10 shell pairs

Calculating one electron integrals          ... done (  0.0 sec)
Calculating Nuclear repulsion               ... done (  0.3 sec) ENN=    103.444481107638 Eh
Calculating 4-index integrals               ... 
    -> SHARK/Ints2Disk: Thresh =     2.500000e-11 TCut=    2.500000e-12 
    -> calling libint FockFlag=2 Lmax_loc=1
    ->Total LIBINT loop time =    0.000 sec
    -> L=0 0 0 0:     0.003 sec done=      2820 (=100.0%) skipped=         0 
    -> L=1 0 0 0:     0.007 sec done=      3593 (=100.0%) skipped=         0 
    -> L=1 0 1 0:     0.004 sec done=      1176 (=100.0%) skipped=         0 
    -> L=1 1 0 0:     0.003 sec done=       750 (=100.0%) skipped=         0 
    -> L=1 1 1 0:     0.004 sec done=       480 (=100.0%) skipped=         0 
    -> L=1 1 1 1:     0.001 sec done=        55 (=100.0%) skipped=         0 
    ->Total SHARK integral loop time =    0.021 sec
    -> Total Integral generation matrix time =    0.250 sec
    -> Number of small integrals   =       583
    -> Number of medium integrals  =      2140
    -> Number of large integrals   =     41036
    -> Number of MB stored         =         0 MB


SHARK setup successfully completed in   2.7 seconds

Maximum memory used throughout the entire GTOINT-calculation: 29.5 MB
-------------------------------------------------------------------------------
                                 ORCA SCF
-------------------------------------------------------------------------------

------------
SCF SETTINGS
------------
Hamiltonian:
 Ab initio Hamiltonian  Method          .... Hartree-Fock(GTOs)


General Settings:
 Integral files         IntName         .... acrolien.602
 Hartree-Fock type      HFTyp           .... RHF
 Total Charge           Charge          ....    0
 Multiplicity           Mult            ....    1
 Number of Electrons    NEL             ....   30
 Basis Dimension        Dim             ....   24
 Nuclear Repulsion      ENuc            ....    103.4444811076 Eh

Convergence Acceleration:
 DIIS                   CNVDIIS         .... on
   Start iteration      DIISMaxIt       ....    12
   Startup error        DIISStart       ....  0.200000
   # of expansion vecs  DIISMaxEq       ....     5
   Bias factor          DIISBfac        ....   1.050
   Max. coefficient     DIISMaxC        ....  10.000
 Trust-Rad. Augm. Hess. CNVTRAH         .... auto
   Auto Start mean grad. ratio tolernc. ....  1.125000
   Auto Start start iteration           ....    20
   Auto Start num. interpolation iter.  ....    10
   Max. Number of Micro iterations      ....    16
   Max. Number of Macro iterations      .... Maxiter - #DIIS iter
   Number of Davidson start vectors     ....     2
   Converg. threshold I  (grad. norm)   ....   1.000e-05
   Converg. threshold II (energy diff.) ....   1.000e-08
   Grad. Scal. Fac. for Micro threshold ....   0.100
   Minimum threshold for Micro iter.    ....   0.010
   NR start threshold (gradient norm)   ....   0.001
   Initial trust radius                 ....   0.400
   Minimum AH scaling param. (alpha)    ....   1.000
   Maximum AH scaling param. (alpha)    .... 1000.000
   Orbital update algorithm             .... Taylor
   White noise on init. David. guess    .... on
   Maximum white noise                  ....   0.010
   Quad. conv. algorithm                .... NR
 SOSCF                  CNVSOSCF        .... on
   Start iteration      SOSCFMaxIt      ....   150
   Startup grad/error   SOSCFStart      ....  0.003300
 Level Shifting         CNVShift        .... on
   Level shift para.    LevelShift      ....    0.2500
   Turn off err/grad.   ShiftErr        ....    0.0010
 Zerner damping         CNVZerner       .... off
 Static damping         CNVDamp         .... on
   Fraction old density DampFac         ....    0.7000
   Max. Damping (<1)    DampMax         ....    0.9800
   Min. Damping (>=0)   DampMin         ....    0.0000
   Turn off err/grad.   DampErr         ....    0.1000
 Fernandez-Rico         CNVRico         .... off

SCF Procedure:
 Maximum # iterations   MaxIter         ....   500
 SCF integral mode      SCFMode         .... Conventional
 Integral Threshold     Thresh          ....  2.500e-11 Eh
 Primitive CutOff       TCut            ....  2.500e-12 Eh
 Integral Buffer length BufferLength    .... 1048576
 Integral index format  IndFormat       ....     0
 Integral value format  ValFormat       ....     0
 Integral Storage       Thresh          ....  2.500e-11 Eh

Convergence Tolerance:
 Convergence Check Mode ConvCheckMode   .... Total+1el-Energy
 Convergence forced     ConvForced      .... 1
 Energy Change          TolE            ....  1.000e-08 Eh
 1-El. energy change                    ....  1.000e-05 Eh
 Orbital Gradient       TolG            ....  1.000e-05
 Orbital Rotation angle TolX            ....  1.000e-05
 DIIS Error             TolErr          ....  5.000e-07


Diagonalization of the overlap matrix:
Smallest eigenvalue                        ... 1.876e-01
Time for diagonalization                   ...    0.000 sec
Threshold for overlap eigenvalues          ... 1.000e-08
Number of eigenvalues below threshold      ... 0
Time for construction of square roots      ...    0.756 sec
Total time needed                          ...    0.756 sec

--------------------------------
INITIAL GUESS: MINIMAL BASIS EHT
--------------------------------
The minimal basis has 24 functions
EHT matrix was diagonalized
Basis set overlap was calculated now projecting the orbitals
Using GuessMode=FMatrix for the initial guess
C*T matrix was formed
Effective Fockian was calculated
Effective Fockian was diagonalized
Initial density was built
                      ------------------
                      INITIAL GUESS DONE
                      ------------------

 InCore treatment chosen:
   Memory dedicated               ...    1024 MB
   Memory needed                  ...      0 MB
   Number of tiny    integrals    ...     583
   Number of small   integrals    ...    2140
   Number of regular integrals    ...   41036

--------------
SCF ITERATIONS
--------------
ITER       Energy         Delta-E        Max-DP      RMS-DP      [F,P]     Damp
  0   -189.0182728276   0.000000000000 0.12693468  0.01351697  0.2730115 0.7000
  1   -189.1276596057  -0.109386778161 0.10028938  0.01078423  0.1981592 0.7000
                               ***Turning on DIIS***
  2   -189.1991718146  -0.071512208853 0.06250977  0.00703379  0.1430769 0.7000
  3   -189.2019502587  -0.002778444116 0.03611150  0.00423406  0.1031587 0.7000
  4   -189.2272731214  -0.025322862671 0.09604997  0.01034158  0.0728394 0.0000
  5   -189.3585843095  -0.131311188130 0.00774173  0.00106218  0.0069034 0.0000
                      *** Initiating the SOSCF procedure ***
                           *** Shutting down DIIS ***
                      *** Re-Reading the Fockian *** 
                      *** Removing any level shift *** 
ITER      Energy       Delta-E        Grad      Rot      Max-DP    RMS-DP
  6   -189.36047100  -0.0018866885  0.001350  0.001350  0.002533  0.000368
  7   -189.36081432  -0.0003433251  0.000639  0.000843  0.001509  0.000203
  8   -189.36082112  -0.0000067999  0.000392  0.000959  0.001465  0.000200
  9   -189.36082325  -0.0000021290  0.000103  0.000122  0.000242  0.000037
 10   -189.36082345  -0.0000002013  0.000050  0.000057  0.000147  0.000018
 11   -189.36082349  -0.0000000336  0.000015  0.000042  0.000075  0.000008
 12   -189.36082349  -0.0000000048  0.000007  0.000023  0.000035  0.000003
                 **** Energy Check signals convergence ****
              ***Rediagonalizing the Fockian in SOSCF/NRSCF***

               *****************************************************
               *                     SUCCESS                       *
               *           SCF CONVERGED AFTER  13 CYCLES          *
               *****************************************************


----------------
TOTAL SCF ENERGY
----------------

Total Energy       :         -189.36082349 Eh           -5152.76997 eV

Components:
Nuclear Repulsion  :          103.44448111 Eh            2814.86744 eV
Electronic Energy  :         -292.80530460 Eh           -7967.63741 eV
One Electron Energy:         -461.72347621 Eh          -12564.13454 eV
Two Electron Energy:          168.91817161 Eh            4596.49713 eV

Virial components:
Potential Energy   :         -378.42572335 Eh          -10297.48745 eV
Kinetic Energy     :          189.06489986 Eh            5144.71748 eV
Virial Ratio       :            2.00156520


---------------
SCF CONVERGENCE
---------------

  Last Energy change         ...   -9.6458e-10  Tolerance :   1.0000e-08
  Last MAX-Density change    ...    4.0935e-05  Tolerance :   1.0000e-07
  Last RMS-Density change    ...    3.3052e-06  Tolerance :   5.0000e-09
  Last Orbital Gradient      ...    3.9343e-06  Tolerance :   1.0000e-05
  Last Orbital Rotation      ...    2.0978e-05  Tolerance :   1.0000e-05

             **** THE GBW FILE WAS UPDATED (acrolien.602.gbw) ****
             **** DENSITY acrolien.602.scfp WAS UPDATED ****
             **** ENERGY FILE WAS UPDATED (acrolien.602.en.tmp) ****
             **** THE GBW FILE WAS UPDATED (acrolien.602.gbw) ****
             **** DENSITY acrolien.602.scfp WAS UPDATED ****
----------------
ORBITAL ENERGIES
----------------

  NO   OCC          E(Eh)            E(eV) 
   0   2.0000     -20.396821      -555.0257 
   1   2.0000     -11.315170      -307.9014 
   2   2.0000     -11.176038      -304.1155 
   3   2.0000     -11.169013      -303.9243 
   4   2.0000      -1.450236       -39.4629 
   5   2.0000      -1.057095       -28.7650 
   6   2.0000      -0.875422       -23.8214 
   7   2.0000      -0.760109       -20.6836 
   8   2.0000      -0.665832       -18.1182 
   9   2.0000      -0.634981       -17.2787 
  10   2.0000      -0.598648       -16.2900 
  11   2.0000      -0.549021       -14.9396 
  12   2.0000      -0.498920       -13.5763 
  13   2.0000      -0.404256       -11.0004 
  14   2.0000      -0.392007       -10.6670 
  15   0.0000       0.184610         5.0235 
  16   0.0000       0.233295         6.3483 
  17   0.0000       0.496315        13.5054 
  18   0.0000       0.564610        15.3638 
  19   0.0000       0.583960        15.8903 
  20   0.0000       0.744043        20.2465 
  21   0.0000       0.845550        23.0086 
  22   0.0000       0.954490        25.9730 
  23   0.0000       0.962494        26.1908 

                    ********************************
                    * MULLIKEN POPULATION ANALYSIS *
                    ********************************

-----------------------
MULLIKEN ATOMIC CHARGES
-----------------------
   0 C :    0.167139
   1 O :   -0.341247
   2 C :   -0.141613
   3 C :   -0.250206
   4 H :    0.140635
   5 H :    0.140962
   6 H :    0.137678
   7 H :    0.146652
Sum of atomic charges:   -0.0000000

--------------------------------
MULLIKEN REDUCED ORBITAL CHARGES
--------------------------------
  0 C s       :     3.048220  s :     3.048220
      pz      :     0.987356  p :     2.784641
      px      :     0.955568
      py      :     0.841717
  1 O s       :     3.821260  s :     3.821260
      pz      :     1.618578  p :     4.519987
      px      :     1.565074
      py      :     1.336335
  2 C s       :     3.111337  s :     3.111337
      pz      :     1.016362  p :     3.030275
      px      :     0.977217
      py      :     1.036696
  3 C s       :     3.152415  s :     3.152415
      pz      :     1.016541  p :     3.097791
      px      :     1.033478
      py      :     1.047772
  4 H s       :     0.859365  s :     0.859365
  5 H s       :     0.859038  s :     0.859038
  6 H s       :     0.862322  s :     0.862322
  7 H s       :     0.853348  s :     0.853348


                     *******************************
                     * LOEWDIN POPULATION ANALYSIS *
                     *******************************

----------------------
LOEWDIN ATOMIC CHARGES
----------------------
   0 C :    0.142425
   1 O :   -0.227847
   2 C :   -0.113912
   3 C :   -0.169057
   4 H :    0.070906
   5 H :    0.102791
   6 H :    0.092023
   7 H :    0.102670

-------------------------------
LOEWDIN REDUCED ORBITAL CHARGES
-------------------------------
  0 C s       :     2.970924  s :     2.970924
      pz      :     1.012063  p :     2.886651
      px      :     0.977934
      py      :     0.896653
  1 O s       :     3.670093  s :     3.670093
      pz      :     1.635377  p :     4.557754
      px      :     1.567023
      py      :     1.355353
  2 C s       :     3.011661  s :     3.011661
      pz      :     1.020252  p :     3.102251
      px      :     1.037071
      py      :     1.044928
  3 C s       :     3.026305  s :     3.026305
      pz      :     1.021403  p :     3.142752
      px      :     1.073548
      py      :     1.047801
  4 H s       :     0.929094  s :     0.929094
  5 H s       :     0.897209  s :     0.897209
  6 H s       :     0.907977  s :     0.907977
  7 H s       :     0.897330  s :     0.897330


                      *****************************
                      * MAYER POPULATION ANALYSIS *
                      *****************************

  NA   - Mulliken gross atomic population
  ZA   - Total nuclear charge
  QA   - Mulliken gross atomic charge
  VA   - Mayer's total valence
  BVA  - Mayer's bonded valence
  FA   - Mayer's free valence

  ATOM       NA         ZA         QA         VA         BVA        FA
  0 C      5.8329     6.0000     0.1671     3.8580     3.8580    -0.0000
  1 O      8.3412     8.0000    -0.3412     2.0715     2.0715    -0.0000
  2 C      6.1416     6.0000    -0.1416     3.9737     3.9737    -0.0000
  3 C      6.2502     6.0000    -0.2502     3.9520     3.9520    -0.0000
  4 H      0.8594     1.0000     0.1406     0.9802     0.9802    -0.0000
  5 H      0.8590     1.0000     0.1410     0.9801     0.9801    -0.0000
  6 H      0.8623     1.0000     0.1377     0.9810     0.9810    -0.0000
  7 H      0.8533     1.0000     0.1467     0.9785     0.9785     0.0000

  Mayer bond orders larger than 0.100000
B(  0-C ,  1-O ) :   1.9491 B(  0-C ,  2-C ) :   0.9735 B(  0-C ,  4-H ) :   0.9198 
B(  2-C ,  3-C ) :   2.0057 B(  2-C ,  5-H ) :   0.9433 B(  3-C ,  6-H ) :   0.9616 
B(  3-C ,  7-H ) :   0.9580 

-------
TIMINGS
-------

Total SCF time: 0 days 0 hours 0 min 4 sec 

Total time                  ....       4.016 sec
Sum of individual times     ....       0.655 sec  ( 16.3%)

Fock matrix formation       ....       0.108 sec  (  2.7%)
Diagonalization             ....       0.001 sec  (  0.0%)
Density matrix formation    ....       0.000 sec  (  0.0%)
Population analysis         ....       0.396 sec  (  9.9%)
Initial guess               ....       0.002 sec  (  0.0%)
Orbital Transformation      ....       0.000 sec  (  0.0%)
Orbital Orthonormalization  ....       0.000 sec  (  0.0%)
DIIS solution               ....       0.002 sec  (  0.0%)
SOSCF solution              ....       0.146 sec  (  3.6%)

Maximum memory used throughout the entire SCF-calculation: 224.9 MB
------------------------------------------------------------------------------
                         ORCA CIS CALCULATION
------------------------------------------------------------------------------

Input orbitals are from        ... acrolien.602.gbw
CI-vector output               ... acrolien.602.cis
Tamm-Dancoff approximation     ... operative
CIS-Integral strategy          ... AO-integrals
Integral handling              ... AO integral Conventional
Reference state                ... RHF
Generation of triplets         ... off
Follow IRoot                   ... off
Number of operators            ... 1
Orbital ranges used for CIS calculation:
 Operator 0:  Orbitals   4... 14  to  15... 23
XAS localization array:
 Operator 0:  Orbitals  -1... -1

------------------------
DAVIDSON-DIAGONALIZATION
------------------------

Dimension of the eigenvalue problem            ...     99
Number of roots to be determined               ...      1
Maximum size of the expansion space            ...     10
Maximum number of iterations                   ...    100
Convergence tolerance for the residual         ...    2.500e-07
Convergence tolerance for the energies         ...    2.500e-07
Orthogonality tolerance                        ...    1.000e-14
Level Shift                                    ...    0.000e+00
Constructing the preconditioner                ... o.k.
Building the initial guess                     ... o.k.
Number of trial vectors determined             ...     10


                       ****Iteration    0****

   Memory handling for direct AO based CIS:
   Memory per vector needed      ...     1 MB
   Memory needed                 ...     0 MB
   Memory available              ...   512 MB
   Number of vectors per batch   ...   512
   Number of batches             ...     1
   Time for densities:            0.001
   SHARK[4]
   Time for Sigma-Completion:     0.000
   Size of expansion space: 3
   Lowest Energy          :     0.219870593649
   Maximum Energy change  :     0.219870593649 (vector 0)
   Maximum residual norm  :     0.015484783702

                       ****Iteration    1****
   Time for densities:            0.000
   SHARK[4]
   Time for Sigma-Completion:     0.000
   Size of expansion space: 4
   Lowest Energy          :     0.165878815326
   Maximum Energy change  :     0.053991778323 (vector 0)
   Maximum residual norm  :     0.003301144210

                       ****Iteration    2****
   Time for densities:            0.000
   SHARK[4]
   Time for Sigma-Completion:     0.000
   Size of expansion space: 5
   Lowest Energy          :     0.160237026125
   Maximum Energy change  :     0.005641789201 (vector 0)
   Maximum residual norm  :     0.000525518106

                       ****Iteration    3****
   Time for densities:            0.000
   SHARK[4]
   Time for Sigma-Completion:     0.000
   Size of expansion space: 6
   Lowest Energy          :     0.159500656698
   Maximum Energy change  :     0.000736369427 (vector 0)
   Maximum residual norm  :     0.000020566129

                       ****Iteration    4****
   Time for densities:            0.000
   SHARK[4]
   Time for Sigma-Completion:     0.000
   Size of expansion space: 7
   Lowest Energy          :     0.159453171182
   Maximum Energy change  :     0.000047485516 (vector 0)
   Maximum residual norm  :     0.000001819908

                       ****Iteration    5****
   Time for densities:            0.000
   SHARK[4]
   Time for Sigma-Completion:     0.000
   Size of expansion space: 8
   Lowest Energy          :     0.159448925948
   Maximum Energy change  :     0.000004245234 (vector 0)
   Maximum residual norm  :     0.000000158101

      *** CONVERGENCE OF RESIDUAL NORM REACHED ***

Storing the converged CI vectors               ... acrolien.602.cis1

                 *** DAVIDSON DONE ***

Total time for solving the CIS problem:     1.743sec

-----------------------------
CIS-EXCITED STATES (SINGLETS)
-----------------------------

the weight of the individual excitations are printed if larger than 1.0e-02

STATE  1:  E=   0.159449 au      4.339 eV    34995.0 cm**-1 <S**2> =   0.000000
     8a ->  15a  :     0.019723 (c=  0.14043743)
    11a ->  15a  :     0.023227 (c= -0.15240352)
    12a ->  15a  :     0.073877 (c= -0.27180384)
    13a ->  15a  :     0.752066 (c= -0.86721715)
    13a ->  16a  :     0.070132 (c=  0.26482367)
    14a ->  15a  :     0.021078 (c=  0.14518181)


----------------------
CIS-EXCITATION SPECTRA
----------------------

Center of mass = ( -0.8558, -0.4559, -0.3935)
Calculating the Dipole integrals                  ... done
Transforming integrals                            ... done
Calculating the Linear Momentum integrals         ... done
Transforming integrals                            ... done
Calculating angular momentum integrals            ... done
Transforming integrals                            ... done

-----------------------------------------------------------------------------
         ABSORPTION SPECTRUM VIA TRANSITION ELECTRIC DIPOLE MOMENTS
-----------------------------------------------------------------------------
State   Energy    Wavelength  fosc         T2        TX        TY        TZ  
        (cm-1)      (nm)                 (au**2)    (au)      (au)      (au) 
-----------------------------------------------------------------------------
   1   34995.0    285.8   0.000568852   0.00535   0.06457   0.00085  -0.03437

-----------------------------------------------------------------------------
         ABSORPTION SPECTRUM VIA TRANSITION VELOCITY DIPOLE MOMENTS
-----------------------------------------------------------------------------
State   Energy    Wavelength   fosc        P2         PX        PY        PZ  
        (cm-1)      (nm)                 (au**2)     (au)      (au)      (au) 
-----------------------------------------------------------------------------
   1   34995.0    285.8   0.001298423   0.00031  -0.00948  -0.01379   0.00553

-------------------------------------------------------------------
                             CD SPECTRUM
-------------------------------------------------------------------
State  Energy     Wavelength     R         MX        MY        MZ   
       (cm-1)       (nm)     (1e40*cgs)   (au)      (au)      (au)  
-------------------------------------------------------------------
   1   34995.0    285.8      0.73720  -0.18946  -0.37836  -0.41073

-------------------------------------------------------------------
         CD SPECTRUM VIA TRANSITION VELOCITY DIPOLE MOMENTS        
-------------------------------------------------------------------
State  Energy     Wavelength     R         MX        MY        MZ   
       (cm-1)       (nm)     (1e40*cgs)   (au)      (au)      (au)  
-------------------------------------------------------------------
   1   34995.0    285.8     14.02684  -0.18946  -0.37836  -0.41073

Total run time:        3.141 sec

           *** ORCA-CIS/TD-DFT FINISHED WITHOUT ERROR ***

Maximum memory used throughout the entire CIS-calculation: 51.7 MB

-----------------------
CIS/TD-DFT TOTAL ENERGY
-----------------------

    E(SCF)  =   -189.360823493 Eh
    DE(CIS) =      0.159448926 Eh (Root  1)
    ----------------------------- ---------
    E(tot)  =   -189.201374567 Eh



-------------------------------------------------------------------------------
                          DFT DISPERSION CORRECTION                            
                                                                               
                              DFTD3 V3.1  Rev 1                                
                          USING Becke-Johnson damping                          
-------------------------------------------------------------------------------
Hartree-Fock is recognized
Active option DFTDOPT                   ...         4   

molecular C6(AA) [au] = 663.335729 


            DFT-D V3
 parameters
 using HF/MINIX parameters
 s6 scaling factor         :     1.0000 
 a1 scaling factor         :     0.4171 
 s8 scaling factor         :     0.8777 
 a2 scaling factor         :     2.9149 
 ad hoc parameters k1-k3   :    16.0000     1.3333    -4.0000 

 Edisp/kcal,au: -15.619162204985  -0.024890716689 
 E6   /kcal   :  -8.660376613 
 E8   /kcal   :  -6.958785592 
 % E8         :  44.552873584 

-------------------------   ----------------
Dispersion correction           -0.024890717
-------------------------   ----------------

------------------   -----------------
gCP+bas correction        -0.059145542
------------------   -----------------
----------------------------   ----------------
Total correction to HF/MINIX       -0.084036259
----------------------------   ----------------


-------------------------   --------------------
FINAL SINGLE POINT ENERGY      -189.285410825340
-------------------------   --------------------


                            ***************************************
                            *     ORCA property calculations      *
                            ***************************************

                                    ---------------------
                                    Active property flags
                                    ---------------------
   (+) Dipole Moment


------------------------------------------------------------------------------
                       ORCA ELECTRIC PROPERTIES CALCULATION
------------------------------------------------------------------------------

Dipole Moment Calculation                       ... on
Quadrupole Moment Calculation                   ... off
Polarizability Calculation                      ... off
GBWName                                         ... acrolien.602.gbw
Electron density                                ... acrolien.602.scfp
The origin for moment calculation is the CENTER OF MASS  = (-0.855758, -0.455940 -0.393503)

-------------
DIPOLE MOMENT
-------------
                                X             Y             Z
Electronic contribution:     -2.88175      -1.09258      -1.00617
Nuclear contribution   :      3.31754       1.67874       1.52022
                        -----------------------------------------
Total Dipole Moment    :      0.43579       0.58617       0.51405
                        -----------------------------------------
Magnitude (a.u.)       :      0.89317
Magnitude (Debye)      :      2.27025



--------------------
Rotational spectrum 
--------------------
 
Rotational constants in cm-1:     0.984592     0.166651     0.160184 
Rotational constants in MHz : 29517.328334  4996.060755  4802.198967 

 Dipole components along the rotational axes: 
x,y,z [a.u.] :    -0.728462    -0.369317     0.361521 
x,y,z [Debye]:    -1.851605    -0.938729     0.918913 

 

Timings for individual modules:

Sum of individual times         ...       10.905 sec (=   0.182 min)
GTO integral calculation        ...        3.390 sec (=   0.056 min)  31.1 %
SCF iterations                  ...        4.178 sec (=   0.070 min)  38.3 %
CIS module                      ...        3.338 sec (=   0.056 min)  30.6 %
                             ****ORCA TERMINATED NORMALLY****
TOTAL RUN TIME: 0 days 0 hours 0 minutes 13 seconds 215 msec
