
                                 *****************
                                 * O   R   C   A *
                                 *****************

                                            #,                                       
                                            ###                                      
                                            ####                                     
                                            #####                                    
                                            ######                                   
                                           ########,                                 
                                     ,,################,,,,,                         
                               ,,#################################,,                 
                          ,,##########################################,,             
                       ,#########################################, ''#####,          
                    ,#############################################,,   '####,        
                  ,##################################################,,,,####,       
                ,###########''''           ''''###############################       
              ,#####''   ,,,,##########,,,,          '''####'''          '####       
            ,##' ,,,,###########################,,,                        '##       
           ' ,,###''''                  '''############,,,                           
         ,,##''                                '''############,,,,        ,,,,,,###''
      ,#''                                            '''#######################'''  
     '                                                          ''''####''''         
             ,#######,   #######,   ,#######,      ##                                
            ,#'     '#,  ##    ##  ,#'     '#,    #''#        ######   ,####,        
            ##       ##  ##   ,#'  ##            #'  '#       #        #'  '#        
            ##       ##  #######   ##           ,######,      #####,   #    #        
            '#,     ,#'  ##    ##  '#,     ,#' ,#      #,         ##   #,  ,#        
             '#######'   ##     ##  '#######'  #'      '#     #####' # '####'        



                  #######################################################
                  #                        -***-                        #
                  #          Department of theory and spectroscopy      #
                  #    Directorship and core code : Frank Neese         #
                  #        Max Planck Institute fuer Kohlenforschung    #
                  #                Kaiser Wilhelm Platz 1               #
                  #                 D-45470 Muelheim/Ruhr               #
                  #                      Germany                        #
                  #                                                     #
                  #                  All rights reserved                #
                  #                        -***-                        #
                  #######################################################


                         Program Version 5.0.3 -  RELEASE  -


 With contributions from (in alphabetic order):
   Daniel Aravena         : Magnetic Suceptibility
   Michael Atanasov       : Ab Initio Ligand Field Theory (pilot matlab implementation)
   Alexander A. Auer      : GIAO ZORA, VPT2 properties, NMR spectrum
   Ute Becker             : Parallelization
   Giovanni Bistoni       : ED, misc. LED, open-shell LED, HFLD
   Martin Brehm           : Molecular dynamics
   Dmytro Bykov           : SCF Hessian
   Vijay G. Chilkuri      : MRCI spin determinant printing, contributions to CSF-ICE
   Dipayan Datta          : RHF DLPNO-CCSD density
   Achintya Kumar Dutta   : EOM-CC, STEOM-CC
   Dmitry Ganyushin       : Spin-Orbit,Spin-Spin,Magnetic field MRCI
   Miquel Garcia          : C-PCM and meta-GGA Hessian, CC/C-PCM, Gaussian charge scheme
   Yang Guo               : DLPNO-NEVPT2, F12-NEVPT2, CIM, IAO-localization
   Andreas Hansen         : Spin unrestricted coupled pair/coupled cluster methods
   Benjamin Helmich-Paris : MC-RPA, TRAH-SCF, COSX integrals
   Lee Huntington         : MR-EOM, pCC
   Robert Izsak           : Overlap fitted RIJCOSX, COSX-SCS-MP3, EOM
   Marcus Kettner         : VPT2
   Christian Kollmar      : KDIIS, OOCD, Brueckner-CCSD(T), CCSD density, CASPT2, CASPT2-K
   Simone Kossmann        : Meta GGA functionals, TD-DFT gradient, OOMP2, MP2 Hessian
   Martin Krupicka        : Initial AUTO-CI
   Lucas Lang             : DCDCAS
   Marvin Lechner         : AUTO-CI (C++ implementation), FIC-MRCC
   Dagmar Lenk            : GEPOL surface, SMD
   Dimitrios Liakos       : Extrapolation schemes; Compound Job, initial MDCI parallelization
   Dimitrios Manganas     : Further ROCIS development; embedding schemes
   Dimitrios Pantazis     : SARC Basis sets
   Anastasios Papadopoulos: AUTO-CI, single reference methods and gradients
   Taras Petrenko         : DFT Hessian,TD-DFT gradient, ASA, ECA, R-Raman, ABS, FL, XAS/XES, NRVS
   Peter Pinski           : DLPNO-MP2, DLPNO-MP2 Gradient
   Christoph Reimann      : Effective Core Potentials
   Marius Retegan         : Local ZFS, SOC
   Christoph Riplinger    : Optimizer, TS searches, QM/MM, DLPNO-CCSD(T), (RO)-DLPNO pert. Triples
   Tobias Risthaus        : Range-separated hybrids, TD-DFT gradient, RPA, STAB
   Michael Roemelt        : Original ROCIS implementation
   Masaaki Saitow         : Open-shell DLPNO-CCSD energy and density
   Barbara Sandhoefer     : DKH picture change effects
   Avijit Sen             : IP-ROCIS
   Kantharuban Sivalingam : CASSCF convergence, NEVPT2, FIC-MRCI
   Bernardo de Souza      : ESD, SOC TD-DFT
   Georgi Stoychev        : AutoAux, RI-MP2 NMR, DLPNO-MP2 response
   Willem Van den Heuvel  : Paramagnetic NMR
   Boris Wezisla          : Elementary symmetry handling
   Frank Wennmohs         : Technical directorship


 We gratefully acknowledge several colleagues who have allowed us to
 interface, adapt or use parts of their codes:
   Stefan Grimme, W. Hujo, H. Kruse, P. Pracht,  : VdW corrections, initial TS optimization,
                  C. Bannwarth, S. Ehlert          DFT functionals, gCP, sTDA/sTD-DF
   Ed Valeev, F. Pavosevic, A. Kumar             : LibInt (2-el integral package), F12 methods
   Garnet Chan, S. Sharma, J. Yang, R. Olivares  : DMRG
   Ulf Ekstrom                                   : XCFun DFT Library
   Mihaly Kallay                                 : mrcc  (arbitrary order and MRCC methods)
   Jiri Pittner, Ondrej Demel                    : Mk-CCSD
   Frank Weinhold                                : gennbo (NPA and NBO analysis)
   Christopher J. Cramer and Donald G. Truhlar   : smd solvation model
   Lars Goerigk                                  : TD-DFT with DH, B97 family of functionals
   V. Asgeirsson, H. Jonsson                     : NEB implementation
   FAccTs GmbH                                   : IRC, NEB, NEB-TS, DLPNO-Multilevel, CI-OPT
                                                   MM, QMMM, 2- and 3-layer-ONIOM, Crystal-QMMM,
                                                   LR-CPCM, SF, NACMEs, symmetry and pop. for TD-DFT,
                                                   nearIR, NL-DFT gradient (VV10), updates on ESD,
                                                   ML-optimized integration grids
   S Lehtola, MJT Oliveira, MAL Marques          : LibXC Library
   Liviu Ungur et al                             : ANISO software


 Your calculation uses the libint2 library for the computation of 2-el integrals
 For citations please refer to: http://libint.valeyev.net

 Your ORCA version has been built with support for libXC version: 5.1.0
 For citations please refer to: https://tddft.org/programs/libxc/

 This ORCA versions uses:
   CBLAS   interface :  Fast vector & matrix operations
   LAPACKE interface :  Fast linear algebra routines
   SCALAPACK package :  Parallel linear algebra routines
   Shared memory     :  Shared parallel matrices
   BLAS/LAPACK       :  OpenBLAS 0.3.15  USE64BITINT DYNAMIC_ARCH NO_AFFINITY Haswell SINGLE_THREADED
        Core in use  :  Haswell
   Copyright (c) 2011-2014, The OpenBLAS Project


Your calculation utilizes the geometrical counterpoise correction gCP
Please cite in your paper:
H.Kruse, S. Grimme J.Chem.Phys., 136, (2012), 154101 
   

Your calculation utilizes the atom-pairwise dispersion correction
with the Becke-Johnson damping scheme (D3BJ)
Cite in your paper:
S.Grimme, S.Ehrlich, L.Goerigk, J Comput Chem, (2011), 32, 1456–1465 
S.Grimme, J.Antony, S.Ehrlich and H.Krieg, J.Chem.Phys., 132, (2010), 154104 
   

================================================================================

----- Orbital basis set information -----
Your calculation utilizes the basis: MINIX,
   a combination of small basis sets by S. Grimme (see manual for definitions).

================================================================================
                                        WARNINGS
                       Please study these warnings very carefully!
================================================================================

INFO   : Checking CIS options ...

INFO   : the flag for use of the SHARK integral package has been found!

================================================================================
                                       INPUT FILE
================================================================================
NAME = acrolien.557.com
|  1> ! HF-3c
|  2> !TightSCF
|  3> %scf
|  4>  ConvForced true
|  5>  convergence tight
|  6>  MaxIter 500
|  7> end
|  8>  
|  9> %tddft 
| 10>  nroots 1
| 11> end
| 12> 
| 13> # 	1563
| 14> * xyz 0 1
| 15> 		C   -1.210526  -0.333907  -0.030463
| 16> 		O   -1.372234  -1.440632   0.385890
| 17> 		C   -0.051287   0.435930   0.149937
| 18> 		C    1.220677   0.054926  -0.005017
| 19> 		H   -2.070569   0.071259  -0.536650
| 20> 		H   -0.120532   1.576751   0.215811
| 21> 		H    1.427898  -0.974127  -0.350380
| 22> 		H    2.218590   0.652194   0.169248
| 23> *
| 24> 
| 25>                          ****END OF INPUT****
================================================================================

                       ****************************
                       * Single Point Calculation *
                       ****************************

---------------------------------
CARTESIAN COORDINATES (ANGSTROEM)
---------------------------------
  C     -1.210526   -0.333907   -0.030463
  O     -1.372234   -1.440632    0.385890
  C     -0.051287    0.435930    0.149937
  C      1.220677    0.054926   -0.005017
  H     -2.070569    0.071259   -0.536650
  H     -0.120532    1.576751    0.215811
  H      1.427898   -0.974127   -0.350380
  H      2.218590    0.652194    0.169248

----------------------------
CARTESIAN COORDINATES (A.U.)
----------------------------
  NO LB      ZA    FRAG     MASS         X           Y           Z
   0 C     6.0000    0    12.011   -2.287563   -0.630993   -0.057567
   1 O     8.0000    0    15.999   -2.593146   -2.722400    0.729226
   2 C     6.0000    0    12.011   -0.096918    0.823788    0.283340
   3 C     6.0000    0    12.011    2.306745    0.103795   -0.009481
   4 H     1.0000    0     1.008   -3.912808    0.134660   -1.014122
   5 H     1.0000    0     1.008   -0.227772    2.979628    0.407824
   6 H     1.0000    0     1.008    2.698336   -1.840833   -0.662122
   7 H     1.0000    0     1.008    4.192528    1.232468    0.319832

--------------------------------
INTERNAL COORDINATES (ANGSTROEM)
--------------------------------
 C      0   0   0     0.000000000000     0.00000000     0.00000000
 O      1   0   0     1.193456963404     0.00000000     0.00000000
 C      1   2   0     1.403220661796   125.15832279     0.00000000
 C      3   1   2     1.336812330669   127.93651861    45.87208416
 H      1   2   3     1.077060225045   113.86611316   182.90501484
 H      3   1   2     1.144817368816   120.27395246   210.95244666
 H      4   3   1     1.105063899247   118.68894238     2.36835635
 H      4   3   1     1.175979468196   130.20210700   182.31705324

---------------------------
INTERNAL COORDINATES (A.U.)
---------------------------
 C      0   0   0     0.000000000000     0.00000000     0.00000000
 O      1   0   0     2.255306813455     0.00000000     0.00000000
 C      1   2   0     2.651702756253   125.15832279     0.00000000
 C      3   1   2     2.526209197413   127.93651861    45.87208416
 H      1   2   3     2.035348855075   113.86611316   182.90501484
 H      3   1   2     2.163391300418   120.27395246   210.95244666
 H      4   3   1     2.088268130060   118.68894238     2.36835635
 H      4   3   1     2.222279134004   130.20210700   182.31705324

---------------------
BASIS SET INFORMATION
---------------------
There are 3 groups of distinct atoms

 Group   1 Type C   : 6s3p contracted to 2s1p pattern {33/3}
 Group   2 Type O   : 6s3p contracted to 2s1p pattern {33/3}
 Group   3 Type H   : 3s contracted to 1s pattern {3}

Atom   0C    basis set group =>   1
Atom   1O    basis set group =>   2
Atom   2C    basis set group =>   1
Atom   3C    basis set group =>   1
Atom   4H    basis set group =>   3
Atom   5H    basis set group =>   3
Atom   6H    basis set group =>   3
Atom   7H    basis set group =>   3
------------------------------------------------------------------------------
                           ORCA GTO INTEGRAL CALCULATION
------------------------------------------------------------------------------
------------------------------------------------------------------------------
                   ___                                                        
                  /   \      - P O W E R E D   B Y -                         
                 /     \                                                     
                 |  |  |   _    _      __       _____    __    __             
                 |  |  |  | |  | |    /  \     |  _  \  |  |  /  |          
                  \  \/   | |  | |   /    \    | | | |  |  | /  /          
                 / \  \   | |__| |  /  /\  \   | |_| |  |  |/  /          
                |  |  |   |  __  | /  /__\  \  |    /   |      \           
                |  |  |   | |  | | |   __   |  |    \   |  |\   \          
                \     /   | |  | | |  |  |  |  | |\  \  |  | \   \       
                 \___/    |_|  |_| |__|  |__|  |_| \__\ |__|  \__/        
                                                                              
                      - O R C A' S   B I G   F R I E N D -                    
                                      &                                       
                       - I N T E G R A L  F E E D E R -                       
                                                                              
 v1 FN, 2020, v2 2021                                                         
------------------------------------------------------------------------------


Reading SHARK input file acrolien.557.SHARKINP.tmp ... ok
----------------------
SHARK INTEGRAL PACKAGE
----------------------

Number of atoms                             ...      8
Number of basis functions                   ...     24
Number of shells                            ...     16
Maximum angular momentum                    ...      1
Integral batch strategy                     ... SHARK/LIBINT Hybrid
RI-J (if used) integral strategy            ... SPLIT-RIJ (Revised 2003 algorithm where possible)
Printlevel                                  ...      1
Contraction scheme used                     ... SEGMENTED contraction
Coulomb Range Separation                    ... NOT USED
Exchange Range Separation                   ... NOT USED
Finite Nucleus Model                        ... NOT USED
Auxiliary Coulomb fitting basis             ... NOT available
Auxiliary J/K fitting basis                 ... NOT available
Auxiliary Correlation fitting basis         ... NOT available
Auxiliary 'external' fitting basis          ... NOT available
Integral threshold                          ...     2.500000e-11
Primitive cut-off                           ...     2.500000e-12
Primitive pair pre-selection threshold      ...     2.500000e-12

Calculating pre-screening integrals         ... done (  0.0 sec) Dimension = 16
Organizing shell pair data                  ... done (  0.4 sec)
Shell pair information
Total number of shell pairs                 ...       136
Shell pairs after pre-screening             ...       133
Total number of primitive shell pairs       ...      1224
Primitive shell pairs kept                  ...       995
          la=0 lb=0:     75 shell pairs
          la=1 lb=0:     48 shell pairs
          la=1 lb=1:     10 shell pairs

Calculating one electron integrals          ... done (  0.0 sec)
Calculating Nuclear repulsion               ... done (  0.3 sec) ENN=    105.042941772506 Eh
Calculating 4-index integrals               ... 
    -> SHARK/Ints2Disk: Thresh =     2.500000e-11 TCut=    2.500000e-12 
    -> calling libint FockFlag=2 Lmax_loc=1
    ->Total LIBINT loop time =    0.000 sec
    -> L=0 0 0 0:     0.003 sec done=      2822 (=100.0%) skipped=         0 
    -> L=1 0 0 0:     0.007 sec done=      3595 (=100.0%) skipped=         0 
    -> L=1 0 1 0:     0.004 sec done=      1176 (=100.0%) skipped=         0 
    -> L=1 1 0 0:     0.002 sec done=       750 (=100.0%) skipped=         0 
    -> L=1 1 1 0:     0.004 sec done=       480 (=100.0%) skipped=         0 
    -> L=1 1 1 1:     0.001 sec done=        55 (=100.0%) skipped=         0 
    ->Total SHARK integral loop time =    0.021 sec
    -> Total Integral generation matrix time =    0.500 sec
    -> Number of small integrals   =       521
    -> Number of medium integrals  =      2134
    -> Number of large integrals   =     41166
    -> Number of MB stored         =         0 MB


SHARK setup successfully completed in   2.7 seconds

Maximum memory used throughout the entire GTOINT-calculation: 29.5 MB
-------------------------------------------------------------------------------
                                 ORCA SCF
-------------------------------------------------------------------------------

------------
SCF SETTINGS
------------
Hamiltonian:
 Ab initio Hamiltonian  Method          .... Hartree-Fock(GTOs)


General Settings:
 Integral files         IntName         .... acrolien.557
 Hartree-Fock type      HFTyp           .... RHF
 Total Charge           Charge          ....    0
 Multiplicity           Mult            ....    1
 Number of Electrons    NEL             ....   30
 Basis Dimension        Dim             ....   24
 Nuclear Repulsion      ENuc            ....    105.0429417725 Eh

Convergence Acceleration:
 DIIS                   CNVDIIS         .... on
   Start iteration      DIISMaxIt       ....    12
   Startup error        DIISStart       ....  0.200000
   # of expansion vecs  DIISMaxEq       ....     5
   Bias factor          DIISBfac        ....   1.050
   Max. coefficient     DIISMaxC        ....  10.000
 Trust-Rad. Augm. Hess. CNVTRAH         .... auto
   Auto Start mean grad. ratio tolernc. ....  1.125000
   Auto Start start iteration           ....    20
   Auto Start num. interpolation iter.  ....    10
   Max. Number of Micro iterations      ....    16
   Max. Number of Macro iterations      .... Maxiter - #DIIS iter
   Number of Davidson start vectors     ....     2
   Converg. threshold I  (grad. norm)   ....   1.000e-05
   Converg. threshold II (energy diff.) ....   1.000e-08
   Grad. Scal. Fac. for Micro threshold ....   0.100
   Minimum threshold for Micro iter.    ....   0.010
   NR start threshold (gradient norm)   ....   0.001
   Initial trust radius                 ....   0.400
   Minimum AH scaling param. (alpha)    ....   1.000
   Maximum AH scaling param. (alpha)    .... 1000.000
   Orbital update algorithm             .... Taylor
   White noise on init. David. guess    .... on
   Maximum white noise                  ....   0.010
   Quad. conv. algorithm                .... NR
 SOSCF                  CNVSOSCF        .... on
   Start iteration      SOSCFMaxIt      ....   150
   Startup grad/error   SOSCFStart      ....  0.003300
 Level Shifting         CNVShift        .... on
   Level shift para.    LevelShift      ....    0.2500
   Turn off err/grad.   ShiftErr        ....    0.0010
 Zerner damping         CNVZerner       .... off
 Static damping         CNVDamp         .... on
   Fraction old density DampFac         ....    0.7000
   Max. Damping (<1)    DampMax         ....    0.9800
   Min. Damping (>=0)   DampMin         ....    0.0000
   Turn off err/grad.   DampErr         ....    0.1000
 Fernandez-Rico         CNVRico         .... off

SCF Procedure:
 Maximum # iterations   MaxIter         ....   500
 SCF integral mode      SCFMode         .... Conventional
 Integral Threshold     Thresh          ....  2.500e-11 Eh
 Primitive CutOff       TCut            ....  2.500e-12 Eh
 Integral Buffer length BufferLength    .... 1048576
 Integral index format  IndFormat       ....     0
 Integral value format  ValFormat       ....     0
 Integral Storage       Thresh          ....  2.500e-11 Eh

Convergence Tolerance:
 Convergence Check Mode ConvCheckMode   .... Total+1el-Energy
 Convergence forced     ConvForced      .... 1
 Energy Change          TolE            ....  1.000e-08 Eh
 1-El. energy change                    ....  1.000e-05 Eh
 Orbital Gradient       TolG            ....  1.000e-05
 Orbital Rotation angle TolX            ....  1.000e-05
 DIIS Error             TolErr          ....  5.000e-07


Diagonalization of the overlap matrix:
Smallest eigenvalue                        ... 1.834e-01
Time for diagonalization                   ...    0.000 sec
Threshold for overlap eigenvalues          ... 1.000e-08
Number of eigenvalues below threshold      ... 0
Time for construction of square roots      ...    0.742 sec
Total time needed                          ...    0.742 sec

--------------------------------
INITIAL GUESS: MINIMAL BASIS EHT
--------------------------------
The minimal basis has 24 functions
EHT matrix was diagonalized
Basis set overlap was calculated now projecting the orbitals
Using GuessMode=FMatrix for the initial guess
C*T matrix was formed
Effective Fockian was calculated
Effective Fockian was diagonalized
Initial density was built
                      ------------------
                      INITIAL GUESS DONE
                      ------------------

 InCore treatment chosen:
   Memory dedicated               ...    1024 MB
   Memory needed                  ...      0 MB
   Number of tiny    integrals    ...     521
   Number of small   integrals    ...    2134
   Number of regular integrals    ...   41166

--------------
SCF ITERATIONS
--------------
ITER       Energy         Delta-E        Max-DP      RMS-DP      [F,P]     Damp
  0   -189.0023344192   0.000000000000 0.14419690  0.01480991  0.2762743 0.7000
  1   -189.1258434433  -0.123509024046 0.11417839  0.01186057  0.2006573 0.7000
                               ***Turning on DIIS***
  2   -189.2058765222  -0.080033078947 0.07237906  0.00769885  0.1449787 0.7000
  3   -189.2387270172  -0.032850494992 0.03567199  0.00450359  0.1045817 0.7000
  4   -189.2719080323  -0.033181015139 0.09297432  0.01085788  0.0738491 0.0000
  5   -189.3829605398  -0.111052507439 0.01043220  0.00115324  0.0065059 0.0000
                      *** Initiating the SOSCF procedure ***
                           *** Shutting down DIIS ***
                      *** Re-Reading the Fockian *** 
                      *** Removing any level shift *** 
ITER      Energy       Delta-E        Grad      Rot      Max-DP    RMS-DP
  6   -189.38378914  -0.0008286041  0.001119  0.001119  0.002834  0.000362
  7   -189.38404027  -0.0002511212  0.000733  0.001072  0.001507  0.000198
  8   -189.38404659  -0.0000063239  0.000265  0.000673  0.000973  0.000142
  9   -189.38404790  -0.0000013100  0.000078  0.000090  0.000256  0.000030
 10   -189.38404802  -0.0000001196  0.000040  0.000056  0.000099  0.000012
 11   -189.38404804  -0.0000000213  0.000020  0.000082  0.000124  0.000013
                 **** Energy Check signals convergence ****
              ***Rediagonalizing the Fockian in SOSCF/NRSCF***

               *****************************************************
               *                     SUCCESS                       *
               *           SCF CONVERGED AFTER  12 CYCLES          *
               *****************************************************


----------------
TOTAL SCF ENERGY
----------------

Total Energy       :         -189.38404805 Eh           -5153.40194 eV

Components:
Nuclear Repulsion  :          105.04294177 Eh            2858.36376 eV
Electronic Energy  :         -294.42698982 Eh           -8011.76570 eV
One Electron Energy:         -464.93179043 Eh          -12651.43720 eV
Two Electron Energy:          170.50480061 Eh            4639.67150 eV

Virial components:
Potential Energy   :         -378.54349101 Eh          -10300.69207 eV
Kinetic Energy     :          189.15944296 Eh            5147.29013 eV
Virial Ratio       :            2.00118738


---------------
SCF CONVERGENCE
---------------

  Last Energy change         ...   -8.6590e-09  Tolerance :   1.0000e-08
  Last MAX-Density change    ...    3.4926e-05  Tolerance :   1.0000e-07
  Last RMS-Density change    ...    3.5427e-06  Tolerance :   5.0000e-09
  Last Orbital Gradient      ...    6.8833e-06  Tolerance :   1.0000e-05
  Last Orbital Rotation      ...    2.4923e-05  Tolerance :   1.0000e-05

             **** THE GBW FILE WAS UPDATED (acrolien.557.gbw) ****
             **** DENSITY acrolien.557.scfp WAS UPDATED ****
             **** ENERGY FILE WAS UPDATED (acrolien.557.en.tmp) ****
             **** THE GBW FILE WAS UPDATED (acrolien.557.gbw) ****
             **** DENSITY acrolien.557.scfp WAS UPDATED ****
----------------
ORBITAL ENERGIES
----------------

  NO   OCC          E(Eh)            E(eV) 
   0   2.0000     -20.364953      -554.1585 
   1   2.0000     -11.302340      -307.5523 
   2   2.0000     -11.190792      -304.5169 
   3   2.0000     -11.187725      -304.4335 
   4   2.0000      -1.415486       -38.5173 
   5   2.0000      -1.079624       -29.3781 
   6   2.0000      -0.897015       -24.4090 
   7   2.0000      -0.751683       -20.4543 
   8   2.0000      -0.703822       -19.1520 
   9   2.0000      -0.617612       -16.8061 
  10   2.0000      -0.603156       -16.4127 
  11   2.0000      -0.535607       -14.5746 
  12   2.0000      -0.504040       -13.7156 
  13   2.0000      -0.418273       -11.3818 
  14   2.0000      -0.388968       -10.5844 
  15   0.0000       0.138032         3.7560 
  16   0.0000       0.294611         8.0168 
  17   0.0000       0.506550        13.7839 
  18   0.0000       0.618773        16.8377 
  19   0.0000       0.651186        17.7197 
  20   0.0000       0.717652        19.5283 
  21   0.0000       0.879352        23.9284 
  22   0.0000       0.924997        25.1705 
  23   0.0000       1.016981        27.6735 

                    ********************************
                    * MULLIKEN POPULATION ANALYSIS *
                    ********************************

-----------------------
MULLIKEN ATOMIC CHARGES
-----------------------
   0 C :    0.147391
   1 O :   -0.346546
   2 C :   -0.186920
   3 C :   -0.194276
   4 H :    0.140958
   5 H :    0.149814
   6 H :    0.139352
   7 H :    0.150228
Sum of atomic charges:    0.0000000

--------------------------------
MULLIKEN REDUCED ORBITAL CHARGES
--------------------------------
  0 C s       :     3.030929  s :     3.030929
      pz      :     0.918192  p :     2.821680
      px      :     1.051432
      py      :     0.852055
  1 O s       :     3.828523  s :     3.828523
      pz      :     1.304235  p :     4.518023
      px      :     1.817716
      py      :     1.396072
  2 C s       :     3.067164  s :     3.067164
      pz      :     1.059005  p :     3.119756
      px      :     0.994106
      py      :     1.066645
  3 C s       :     3.154377  s :     3.154377
      pz      :     0.920034  p :     3.039899
      px      :     1.046176
      py      :     1.073690
  4 H s       :     0.859042  s :     0.859042
  5 H s       :     0.850186  s :     0.850186
  6 H s       :     0.860648  s :     0.860648
  7 H s       :     0.849772  s :     0.849772


                     *******************************
                     * LOEWDIN POPULATION ANALYSIS *
                     *******************************

----------------------
LOEWDIN ATOMIC CHARGES
----------------------
   0 C :    0.133105
   1 O :   -0.249796
   2 C :   -0.148991
   3 C :   -0.105046
   4 H :    0.073839
   5 H :    0.102913
   6 H :    0.089035
   7 H :    0.104942

-------------------------------
LOEWDIN REDUCED ORBITAL CHARGES
-------------------------------
  0 C s       :     2.951011  s :     2.951011
      pz      :     0.926641  p :     2.915884
      px      :     1.058837
      py      :     0.930406
  1 O s       :     3.690673  s :     3.690673
      pz      :     1.308740  p :     4.559123
      px      :     1.820974
      py      :     1.429409
  2 C s       :     2.960969  s :     2.960969
      pz      :     1.057324  p :     3.188022
      px      :     1.057176
      py      :     1.073523
  3 C s       :     3.027962  s :     3.027962
      pz      :     0.924215  p :     3.077085
      px      :     1.076159
      py      :     1.076710
  4 H s       :     0.926161  s :     0.926161
  5 H s       :     0.897087  s :     0.897087
  6 H s       :     0.910965  s :     0.910965
  7 H s       :     0.895058  s :     0.895058


                      *****************************
                      * MAYER POPULATION ANALYSIS *
                      *****************************

  NA   - Mulliken gross atomic population
  ZA   - Total nuclear charge
  QA   - Mulliken gross atomic charge
  VA   - Mayer's total valence
  BVA  - Mayer's bonded valence
  FA   - Mayer's free valence

  ATOM       NA         ZA         QA         VA         BVA        FA
  0 C      5.8526     6.0000     0.1474     3.8849     3.8849     0.0000
  1 O      8.3465     8.0000    -0.3465     2.0457     2.0457     0.0000
  2 C      6.1869     6.0000    -0.1869     3.9747     3.9747     0.0000
  3 C      6.1943     6.0000    -0.1943     3.9421     3.9421     0.0000
  4 H      0.8590     1.0000     0.1410     0.9801     0.9801     0.0000
  5 H      0.8502     1.0000     0.1498     0.9776     0.9776     0.0000
  6 H      0.8606     1.0000     0.1394     0.9806     0.9806    -0.0000
  7 H      0.8498     1.0000     0.1502     0.9774     0.9774    -0.0000

  Mayer bond orders larger than 0.100000
B(  0-C ,  1-O ) :   1.8921 B(  0-C ,  2-C ) :   1.0539 B(  0-C ,  4-H ) :   0.9253 
B(  2-C ,  3-C ) :   1.9381 B(  2-C ,  5-H ) :   0.9452 B(  3-C ,  6-H ) :   0.9633 
B(  3-C ,  7-H ) :   0.9617 

-------
TIMINGS
-------

Total SCF time: 0 days 0 hours 0 min 2 sec 

Total time                  ....       2.996 sec
Sum of individual times     ....       0.506 sec  ( 16.9%)

Fock matrix formation       ....       0.101 sec  (  3.4%)
Diagonalization             ....       0.001 sec  (  0.0%)
Density matrix formation    ....       0.000 sec  (  0.0%)
Population analysis         ....       0.397 sec  ( 13.2%)
Initial guess               ....       0.002 sec  (  0.1%)
Orbital Transformation      ....       0.000 sec  (  0.0%)
Orbital Orthonormalization  ....       0.000 sec  (  0.0%)
DIIS solution               ....       0.001 sec  (  0.0%)
SOSCF solution              ....       0.003 sec  (  0.1%)

Maximum memory used throughout the entire SCF-calculation: 225.0 MB
------------------------------------------------------------------------------
                         ORCA CIS CALCULATION
------------------------------------------------------------------------------

Input orbitals are from        ... acrolien.557.gbw
CI-vector output               ... acrolien.557.cis
Tamm-Dancoff approximation     ... operative
CIS-Integral strategy          ... AO-integrals
Integral handling              ... AO integral Conventional
Reference state                ... RHF
Generation of triplets         ... off
Follow IRoot                   ... off
Number of operators            ... 1
Orbital ranges used for CIS calculation:
 Operator 0:  Orbitals   4... 14  to  15... 23
XAS localization array:
 Operator 0:  Orbitals  -1... -1

------------------------
DAVIDSON-DIAGONALIZATION
------------------------

Dimension of the eigenvalue problem            ...     99
Number of roots to be determined               ...      1
Maximum size of the expansion space            ...     10
Maximum number of iterations                   ...    100
Convergence tolerance for the residual         ...    2.500e-07
Convergence tolerance for the energies         ...    2.500e-07
Orthogonality tolerance                        ...    1.000e-14
Level Shift                                    ...    0.000e+00
Constructing the preconditioner                ... o.k.
Building the initial guess                     ... o.k.
Number of trial vectors determined             ...     10


                       ****Iteration    0****

   Memory handling for direct AO based CIS:
   Memory per vector needed      ...     1 MB
   Memory needed                 ...     0 MB
   Memory available              ...   512 MB
   Number of vectors per batch   ...   512
   Number of batches             ...     1
   Time for densities:            0.001
   SHARK[4]
   Time for Sigma-Completion:     0.000
   Size of expansion space: 3
   Lowest Energy          :     0.218908132725
   Maximum Energy change  :     0.218908132725 (vector 0)
   Maximum residual norm  :     0.016950140581

                       ****Iteration    1****
   Time for densities:            0.000
   SHARK[4]
   Time for Sigma-Completion:     0.000
   Size of expansion space: 4
   Lowest Energy          :     0.154288851992
   Maximum Energy change  :     0.064619280734 (vector 0)
   Maximum residual norm  :     0.001666568297

                       ****Iteration    2****
   Time for densities:            0.000
   SHARK[4]
   Time for Sigma-Completion:     0.000
   Size of expansion space: 5
   Lowest Energy          :     0.150694903199
   Maximum Energy change  :     0.003593948792 (vector 0)
   Maximum residual norm  :     0.000176604334

                       ****Iteration    3****
   Time for densities:            0.000
   SHARK[4]
   Time for Sigma-Completion:     0.000
   Size of expansion space: 6
   Lowest Energy          :     0.150460994797
   Maximum Energy change  :     0.000233908403 (vector 0)
   Maximum residual norm  :     0.000015287265

                       ****Iteration    4****
   Time for densities:            0.000
   SHARK[4]
   Time for Sigma-Completion:     0.000
   Size of expansion space: 7
   Lowest Energy          :     0.150436502313
   Maximum Energy change  :     0.000024492484 (vector 0)
   Maximum residual norm  :     0.000001245088

                       ****Iteration    5****
   Time for densities:            0.000
   SHARK[4]
   Time for Sigma-Completion:     0.000
   Size of expansion space: 8
   Lowest Energy          :     0.150434397900
   Maximum Energy change  :     0.000002104413 (vector 0)
   Maximum residual norm  :     0.000000070798

      *** CONVERGENCE OF RESIDUAL NORM REACHED ***

Storing the converged CI vectors               ... acrolien.557.cis1

                 *** DAVIDSON DONE ***

Total time for solving the CIS problem:     1.210sec

-----------------------------
CIS-EXCITED STATES (SINGLETS)
-----------------------------

the weight of the individual excitations are printed if larger than 1.0e-02

STATE  1:  E=   0.150434 au      4.094 eV    33016.5 cm**-1 <S**2> =   0.000000
    13a ->  15a  :     0.726376 (c= -0.85227704)
    13a ->  16a  :     0.189575 (c= -0.43540263)
    14a ->  15a  :     0.028307 (c= -0.16824808)


----------------------
CIS-EXCITATION SPECTRA
----------------------

Center of mass = ( -0.7072, -0.6683,  0.2374)
Calculating the Dipole integrals                  ... done
Transforming integrals                            ... done
Calculating the Linear Momentum integrals         ... done
Transforming integrals                            ... done
Calculating angular momentum integrals            ... done
Transforming integrals                            ... done

-----------------------------------------------------------------------------
         ABSORPTION SPECTRUM VIA TRANSITION ELECTRIC DIPOLE MOMENTS
-----------------------------------------------------------------------------
State   Energy    Wavelength  fosc         T2        TX        TY        TZ  
        (cm-1)      (nm)                 (au**2)    (au)      (au)      (au) 
-----------------------------------------------------------------------------
   1   33016.5    302.9   0.000162636   0.00162   0.03777   0.01249  -0.00623

-----------------------------------------------------------------------------
         ABSORPTION SPECTRUM VIA TRANSITION VELOCITY DIPOLE MOMENTS
-----------------------------------------------------------------------------
State   Energy    Wavelength   fosc        P2         PX        PY        PZ  
        (cm-1)      (nm)                 (au**2)     (au)      (au)      (au) 
-----------------------------------------------------------------------------
   1   33016.5    302.9   0.000544304   0.00012  -0.00078   0.00436   0.01016

-------------------------------------------------------------------
                             CD SPECTRUM
-------------------------------------------------------------------
State  Energy     Wavelength     R         MX        MY        MZ   
       (cm-1)       (nm)     (1e40*cgs)   (au)      (au)      (au)  
-------------------------------------------------------------------
   1   33016.5    302.9     -5.61719  -0.12379  -0.47816   0.20333

-------------------------------------------------------------------
         CD SPECTRUM VIA TRANSITION VELOCITY DIPOLE MOMENTS        
-------------------------------------------------------------------
State  Energy     Wavelength     R         MX        MY        MZ   
       (cm-1)       (nm)     (1e40*cgs)   (au)      (au)      (au)  
-------------------------------------------------------------------
   1   33016.5    302.9      0.24262  -0.12379  -0.47816   0.20333

Total run time:        2.182 sec

           *** ORCA-CIS/TD-DFT FINISHED WITHOUT ERROR ***

Maximum memory used throughout the entire CIS-calculation: 51.7 MB

-----------------------
CIS/TD-DFT TOTAL ENERGY
-----------------------

    E(SCF)  =   -189.384048048 Eh
    DE(CIS) =      0.150434398 Eh (Root  1)
    ----------------------------- ---------
    E(tot)  =   -189.233613651 Eh



-------------------------------------------------------------------------------
                          DFT DISPERSION CORRECTION                            
                                                                               
                              DFTD3 V3.1  Rev 1                                
                          USING Becke-Johnson damping                          
-------------------------------------------------------------------------------
Hartree-Fock is recognized
Active option DFTDOPT                   ...         4   

molecular C6(AA) [au] = 661.237901 


            DFT-D V3
 parameters
 using HF/MINIX parameters
 s6 scaling factor         :     1.0000 
 a1 scaling factor         :     0.4171 
 s8 scaling factor         :     0.8777 
 a2 scaling factor         :     2.9149 
 ad hoc parameters k1-k3   :    16.0000     1.3333    -4.0000 

 Edisp/kcal,au: -15.898922445852  -0.025336542964 
 E6   /kcal   :  -8.802841396 
 E8   /kcal   :  -7.096081050 
 % E8         :  44.632465339 

-------------------------   ----------------
Dispersion correction           -0.025336543
-------------------------   ----------------

------------------   -----------------
gCP+bas correction        -0.053958932
------------------   -----------------
----------------------------   ----------------
Total correction to HF/MINIX       -0.079295475
----------------------------   ----------------


-------------------------   --------------------
FINAL SINGLE POINT ENERGY      -189.312909125523
-------------------------   --------------------


                            ***************************************
                            *     ORCA property calculations      *
                            ***************************************

                                    ---------------------
                                    Active property flags
                                    ---------------------
   (+) Dipole Moment


------------------------------------------------------------------------------
                       ORCA ELECTRIC PROPERTIES CALCULATION
------------------------------------------------------------------------------

Dipole Moment Calculation                       ... on
Quadrupole Moment Calculation                   ... off
Polarizability Calculation                      ... off
GBWName                                         ... acrolien.557.gbw
Electron density                                ... acrolien.557.scfp
The origin for moment calculation is the CENTER OF MASS  = (-0.707212, -0.668296  0.237382)

-------------
DIPOLE MOMENT
-------------
                                X             Y             Z
Electronic contribution:     -2.22830      -1.64524       0.56198
Nuclear contribution   :      2.75507       2.55515      -0.93849
                        -----------------------------------------
Total Dipole Moment    :      0.52676       0.90991      -0.37651
                        -----------------------------------------
Magnitude (a.u.)       :      1.11677
Magnitude (Debye)      :      2.83861



--------------------
Rotational spectrum 
--------------------
 
Rotational constants in cm-1:     0.887424     0.192119     0.162713 
Rotational constants in MHz : 26604.314222  5759.584440  4877.998509 

 Dipole components along the rotational axes: 
x,y,z [a.u.] :     0.932784    -0.564344    -0.242090 
x,y,z [Debye]:     2.370948    -1.434448    -0.615343 

 

Timings for individual modules:

Sum of individual times         ...        9.488 sec (=   0.158 min)
GTO integral calculation        ...        4.017 sec (=   0.067 min)  42.3 %
SCF iterations                  ...        3.129 sec (=   0.052 min)  33.0 %
CIS module                      ...        2.341 sec (=   0.039 min)  24.7 %
                             ****ORCA TERMINATED NORMALLY****
TOTAL RUN TIME: 0 days 0 hours 0 minutes 13 seconds 140 msec
