
                                 *****************
                                 * O   R   C   A *
                                 *****************

                                            #,                                       
                                            ###                                      
                                            ####                                     
                                            #####                                    
                                            ######                                   
                                           ########,                                 
                                     ,,################,,,,,                         
                               ,,#################################,,                 
                          ,,##########################################,,             
                       ,#########################################, ''#####,          
                    ,#############################################,,   '####,        
                  ,##################################################,,,,####,       
                ,###########''''           ''''###############################       
              ,#####''   ,,,,##########,,,,          '''####'''          '####       
            ,##' ,,,,###########################,,,                        '##       
           ' ,,###''''                  '''############,,,                           
         ,,##''                                '''############,,,,        ,,,,,,###''
      ,#''                                            '''#######################'''  
     '                                                          ''''####''''         
             ,#######,   #######,   ,#######,      ##                                
            ,#'     '#,  ##    ##  ,#'     '#,    #''#        ######   ,####,        
            ##       ##  ##   ,#'  ##            #'  '#       #        #'  '#        
            ##       ##  #######   ##           ,######,      #####,   #    #        
            '#,     ,#'  ##    ##  '#,     ,#' ,#      #,         ##   #,  ,#        
             '#######'   ##     ##  '#######'  #'      '#     #####' # '####'        



                  #######################################################
                  #                        -***-                        #
                  #          Department of theory and spectroscopy      #
                  #    Directorship and core code : Frank Neese         #
                  #        Max Planck Institute fuer Kohlenforschung    #
                  #                Kaiser Wilhelm Platz 1               #
                  #                 D-45470 Muelheim/Ruhr               #
                  #                      Germany                        #
                  #                                                     #
                  #                  All rights reserved                #
                  #                        -***-                        #
                  #######################################################


                         Program Version 5.0.3 -  RELEASE  -


 With contributions from (in alphabetic order):
   Daniel Aravena         : Magnetic Suceptibility
   Michael Atanasov       : Ab Initio Ligand Field Theory (pilot matlab implementation)
   Alexander A. Auer      : GIAO ZORA, VPT2 properties, NMR spectrum
   Ute Becker             : Parallelization
   Giovanni Bistoni       : ED, misc. LED, open-shell LED, HFLD
   Martin Brehm           : Molecular dynamics
   Dmytro Bykov           : SCF Hessian
   Vijay G. Chilkuri      : MRCI spin determinant printing, contributions to CSF-ICE
   Dipayan Datta          : RHF DLPNO-CCSD density
   Achintya Kumar Dutta   : EOM-CC, STEOM-CC
   Dmitry Ganyushin       : Spin-Orbit,Spin-Spin,Magnetic field MRCI
   Miquel Garcia          : C-PCM and meta-GGA Hessian, CC/C-PCM, Gaussian charge scheme
   Yang Guo               : DLPNO-NEVPT2, F12-NEVPT2, CIM, IAO-localization
   Andreas Hansen         : Spin unrestricted coupled pair/coupled cluster methods
   Benjamin Helmich-Paris : MC-RPA, TRAH-SCF, COSX integrals
   Lee Huntington         : MR-EOM, pCC
   Robert Izsak           : Overlap fitted RIJCOSX, COSX-SCS-MP3, EOM
   Marcus Kettner         : VPT2
   Christian Kollmar      : KDIIS, OOCD, Brueckner-CCSD(T), CCSD density, CASPT2, CASPT2-K
   Simone Kossmann        : Meta GGA functionals, TD-DFT gradient, OOMP2, MP2 Hessian
   Martin Krupicka        : Initial AUTO-CI
   Lucas Lang             : DCDCAS
   Marvin Lechner         : AUTO-CI (C++ implementation), FIC-MRCC
   Dagmar Lenk            : GEPOL surface, SMD
   Dimitrios Liakos       : Extrapolation schemes; Compound Job, initial MDCI parallelization
   Dimitrios Manganas     : Further ROCIS development; embedding schemes
   Dimitrios Pantazis     : SARC Basis sets
   Anastasios Papadopoulos: AUTO-CI, single reference methods and gradients
   Taras Petrenko         : DFT Hessian,TD-DFT gradient, ASA, ECA, R-Raman, ABS, FL, XAS/XES, NRVS
   Peter Pinski           : DLPNO-MP2, DLPNO-MP2 Gradient
   Christoph Reimann      : Effective Core Potentials
   Marius Retegan         : Local ZFS, SOC
   Christoph Riplinger    : Optimizer, TS searches, QM/MM, DLPNO-CCSD(T), (RO)-DLPNO pert. Triples
   Tobias Risthaus        : Range-separated hybrids, TD-DFT gradient, RPA, STAB
   Michael Roemelt        : Original ROCIS implementation
   Masaaki Saitow         : Open-shell DLPNO-CCSD energy and density
   Barbara Sandhoefer     : DKH picture change effects
   Avijit Sen             : IP-ROCIS
   Kantharuban Sivalingam : CASSCF convergence, NEVPT2, FIC-MRCI
   Bernardo de Souza      : ESD, SOC TD-DFT
   Georgi Stoychev        : AutoAux, RI-MP2 NMR, DLPNO-MP2 response
   Willem Van den Heuvel  : Paramagnetic NMR
   Boris Wezisla          : Elementary symmetry handling
   Frank Wennmohs         : Technical directorship


 We gratefully acknowledge several colleagues who have allowed us to
 interface, adapt or use parts of their codes:
   Stefan Grimme, W. Hujo, H. Kruse, P. Pracht,  : VdW corrections, initial TS optimization,
                  C. Bannwarth, S. Ehlert          DFT functionals, gCP, sTDA/sTD-DF
   Ed Valeev, F. Pavosevic, A. Kumar             : LibInt (2-el integral package), F12 methods
   Garnet Chan, S. Sharma, J. Yang, R. Olivares  : DMRG
   Ulf Ekstrom                                   : XCFun DFT Library
   Mihaly Kallay                                 : mrcc  (arbitrary order and MRCC methods)
   Jiri Pittner, Ondrej Demel                    : Mk-CCSD
   Frank Weinhold                                : gennbo (NPA and NBO analysis)
   Christopher J. Cramer and Donald G. Truhlar   : smd solvation model
   Lars Goerigk                                  : TD-DFT with DH, B97 family of functionals
   V. Asgeirsson, H. Jonsson                     : NEB implementation
   FAccTs GmbH                                   : IRC, NEB, NEB-TS, DLPNO-Multilevel, CI-OPT
                                                   MM, QMMM, 2- and 3-layer-ONIOM, Crystal-QMMM,
                                                   LR-CPCM, SF, NACMEs, symmetry and pop. for TD-DFT,
                                                   nearIR, NL-DFT gradient (VV10), updates on ESD,
                                                   ML-optimized integration grids
   S Lehtola, MJT Oliveira, MAL Marques          : LibXC Library
   Liviu Ungur et al                             : ANISO software


 Your calculation uses the libint2 library for the computation of 2-el integrals
 For citations please refer to: http://libint.valeyev.net

 Your ORCA version has been built with support for libXC version: 5.1.0
 For citations please refer to: https://tddft.org/programs/libxc/

 This ORCA versions uses:
   CBLAS   interface :  Fast vector & matrix operations
   LAPACKE interface :  Fast linear algebra routines
   SCALAPACK package :  Parallel linear algebra routines
   Shared memory     :  Shared parallel matrices
   BLAS/LAPACK       :  OpenBLAS 0.3.15  USE64BITINT DYNAMIC_ARCH NO_AFFINITY Haswell SINGLE_THREADED
        Core in use  :  Haswell
   Copyright (c) 2011-2014, The OpenBLAS Project


Your calculation utilizes the geometrical counterpoise correction gCP
Please cite in your paper:
H.Kruse, S. Grimme J.Chem.Phys., 136, (2012), 154101 
   

Your calculation utilizes the atom-pairwise dispersion correction
with the Becke-Johnson damping scheme (D3BJ)
Cite in your paper:
S.Grimme, S.Ehrlich, L.Goerigk, J Comput Chem, (2011), 32, 1456–1465 
S.Grimme, J.Antony, S.Ehrlich and H.Krieg, J.Chem.Phys., 132, (2010), 154104 
   

================================================================================

----- Orbital basis set information -----
Your calculation utilizes the basis: MINIX,
   a combination of small basis sets by S. Grimme (see manual for definitions).

================================================================================
                                        WARNINGS
                       Please study these warnings very carefully!
================================================================================

INFO   : Checking CIS options ...

INFO   : the flag for use of the SHARK integral package has been found!

================================================================================
                                       INPUT FILE
================================================================================
NAME = acrolien.1161.com
|  1> ! HF-3c
|  2> !TightSCF
|  3> %scf
|  4>  ConvForced true
|  5>  convergence tight
|  6>  MaxIter 500
|  7> end
|  8>  
|  9> %tddft 
| 10>  nroots 1
| 11> end
| 12> 
| 13> # 	28711
| 14> * xyz 0 1
| 15> 		C   -0.570946  -0.414973   0.000487
| 16> 		O   -0.547991  -1.576392   0.005174
| 17> 		C    0.606923   0.364506  -0.031962
| 18> 		C    1.819516  -0.164517   0.009440
| 19> 		H   -1.559881   0.134553   0.041602
| 20> 		H    0.459845   1.514742   0.133709
| 21> 		H    1.987748  -1.266897  -0.058182
| 22> 		H    2.649208   0.478311   0.073226
| 23> *
| 24> 
| 25>                          ****END OF INPUT****
================================================================================

                       ****************************
                       * Single Point Calculation *
                       ****************************

---------------------------------
CARTESIAN COORDINATES (ANGSTROEM)
---------------------------------
  C     -0.570946   -0.414973    0.000487
  O     -0.547991   -1.576392    0.005174
  C      0.606923    0.364506   -0.031962
  C      1.819516   -0.164517    0.009440
  H     -1.559881    0.134553    0.041602
  H      0.459845    1.514742    0.133709
  H      1.987748   -1.266897   -0.058182
  H      2.649208    0.478311    0.073226

----------------------------
CARTESIAN COORDINATES (A.U.)
----------------------------
  NO LB      ZA    FRAG     MASS         X           Y           Z
   0 C     6.0000    0    12.011   -1.078932   -0.784185    0.000920
   1 O     8.0000    0    15.999   -1.035553   -2.978949    0.009777
   2 C     6.0000    0    12.011    1.146918    0.688817   -0.060399
   3 C     6.0000    0    12.011    3.438387   -0.310892    0.017839
   4 H     1.0000    0     1.008   -2.947748    0.254268    0.078616
   5 H     1.0000    0     1.008    0.868981    2.862448    0.252673
   6 H     1.0000    0     1.008    3.756299   -2.394088   -0.109948
   7 H     1.0000    0     1.008    5.006278    0.903877    0.138377

--------------------------------
INTERNAL COORDINATES (ANGSTROEM)
--------------------------------
 C      0   0   0     0.000000000000     0.00000000     0.00000000
 O      1   0   0     1.161655281723     0.00000000     0.00000000
 C      1   2   0     1.412804243412   122.35954772     0.00000000
 C      3   1   2     1.323616728431   122.85722569   356.45412788
 H      1   2   3     1.132104987237   120.16012389   181.13024821
 H      3   1   2     1.171375974664   115.71141556   189.11580172
 H      4   3   1     1.117191301930   122.03530069     7.94864635
 H      4   3   1     1.051515718496   118.71276151   185.71044885

---------------------------
INTERNAL COORDINATES (A.U.)
---------------------------
 C      0   0   0     0.000000000000     0.00000000     0.00000000
 O      1   0   0     2.195210344480     0.00000000     0.00000000
 C      1   2   0     2.669813100891   122.35954772     0.00000000
 C      3   1   2     2.501273123011   122.85722569   356.45412788
 H      1   2   3     2.139368380724   120.16012389   181.13024821
 H      3   1   2     2.213579791971   115.71141556   189.11580172
 H      4   3   1     2.111185599847   122.03530069     7.94864635
 H      4   3   1     1.987076733471   118.71276151   185.71044885

---------------------
BASIS SET INFORMATION
---------------------
There are 3 groups of distinct atoms

 Group   1 Type C   : 6s3p contracted to 2s1p pattern {33/3}
 Group   2 Type O   : 6s3p contracted to 2s1p pattern {33/3}
 Group   3 Type H   : 3s contracted to 1s pattern {3}

Atom   0C    basis set group =>   1
Atom   1O    basis set group =>   2
Atom   2C    basis set group =>   1
Atom   3C    basis set group =>   1
Atom   4H    basis set group =>   3
Atom   5H    basis set group =>   3
Atom   6H    basis set group =>   3
Atom   7H    basis set group =>   3
------------------------------------------------------------------------------
                           ORCA GTO INTEGRAL CALCULATION
------------------------------------------------------------------------------
------------------------------------------------------------------------------
                   ___                                                        
                  /   \      - P O W E R E D   B Y -                         
                 /     \                                                     
                 |  |  |   _    _      __       _____    __    __             
                 |  |  |  | |  | |    /  \     |  _  \  |  |  /  |          
                  \  \/   | |  | |   /    \    | | | |  |  | /  /          
                 / \  \   | |__| |  /  /\  \   | |_| |  |  |/  /          
                |  |  |   |  __  | /  /__\  \  |    /   |      \           
                |  |  |   | |  | | |   __   |  |    \   |  |\   \          
                \     /   | |  | | |  |  |  |  | |\  \  |  | \   \       
                 \___/    |_|  |_| |__|  |__|  |_| \__\ |__|  \__/        
                                                                              
                      - O R C A' S   B I G   F R I E N D -                    
                                      &                                       
                       - I N T E G R A L  F E E D E R -                       
                                                                              
 v1 FN, 2020, v2 2021                                                         
------------------------------------------------------------------------------


Reading SHARK input file acrolien.1161.SHARKINP.tmp ... ok
----------------------
SHARK INTEGRAL PACKAGE
----------------------

Number of atoms                             ...      8
Number of basis functions                   ...     24
Number of shells                            ...     16
Maximum angular momentum                    ...      1
Integral batch strategy                     ... SHARK/LIBINT Hybrid
RI-J (if used) integral strategy            ... SPLIT-RIJ (Revised 2003 algorithm where possible)
Printlevel                                  ...      1
Contraction scheme used                     ... SEGMENTED contraction
Coulomb Range Separation                    ... NOT USED
Exchange Range Separation                   ... NOT USED
Finite Nucleus Model                        ... NOT USED
Auxiliary Coulomb fitting basis             ... NOT available
Auxiliary J/K fitting basis                 ... NOT available
Auxiliary Correlation fitting basis         ... NOT available
Auxiliary 'external' fitting basis          ... NOT available
Integral threshold                          ...     2.500000e-11
Primitive cut-off                           ...     2.500000e-12
Primitive pair pre-selection threshold      ...     2.500000e-12

Calculating pre-screening integrals         ... done (  0.0 sec) Dimension = 16
Organizing shell pair data                  ... done (  0.1 sec)
Shell pair information
Total number of shell pairs                 ...       136
Shell pairs after pre-screening             ...       133
Total number of primitive shell pairs       ...      1224
Primitive shell pairs kept                  ...      1008
          la=0 lb=0:     75 shell pairs
          la=1 lb=0:     48 shell pairs
          la=1 lb=1:     10 shell pairs

Calculating one electron integrals          ... done (  0.0 sec)
Calculating Nuclear repulsion               ... done (  0.4 sec) ENN=    107.323744640635 Eh
Calculating 4-index integrals               ... 
    -> SHARK/Ints2Disk: Thresh =     2.500000e-11 TCut=    2.500000e-12 
    -> calling libint FockFlag=2 Lmax_loc=1
    ->Total LIBINT loop time =    0.000 sec
    -> L=0 0 0 0:     0.003 sec done=      2835 (=100.0%) skipped=         0 
    -> L=1 0 0 0:     0.007 sec done=      3599 (=100.0%) skipped=         0 
    -> L=1 0 1 0:     0.004 sec done=      1176 (=100.0%) skipped=         0 
    -> L=1 1 0 0:     0.003 sec done=       750 (=100.0%) skipped=         0 
    -> L=1 1 1 0:     0.004 sec done=       480 (=100.0%) skipped=         0 
    -> L=1 1 1 1:     0.001 sec done=        55 (=100.0%) skipped=         0 
    ->Total SHARK integral loop time =    0.022 sec
    -> Total Integral generation matrix time =    0.539 sec
    -> Number of small integrals   =       523
    -> Number of medium integrals  =      2567
    -> Number of large integrals   =     40711
    -> Number of MB stored         =         0 MB


SHARK setup successfully completed in   2.7 seconds

Maximum memory used throughout the entire GTOINT-calculation: 29.5 MB
-------------------------------------------------------------------------------
                                 ORCA SCF
-------------------------------------------------------------------------------

------------
SCF SETTINGS
------------
Hamiltonian:
 Ab initio Hamiltonian  Method          .... Hartree-Fock(GTOs)


General Settings:
 Integral files         IntName         .... acrolien.1161
 Hartree-Fock type      HFTyp           .... RHF
 Total Charge           Charge          ....    0
 Multiplicity           Mult            ....    1
 Number of Electrons    NEL             ....   30
 Basis Dimension        Dim             ....   24
 Nuclear Repulsion      ENuc            ....    107.3237446406 Eh

Convergence Acceleration:
 DIIS                   CNVDIIS         .... on
   Start iteration      DIISMaxIt       ....    12
   Startup error        DIISStart       ....  0.200000
   # of expansion vecs  DIISMaxEq       ....     5
   Bias factor          DIISBfac        ....   1.050
   Max. coefficient     DIISMaxC        ....  10.000
 Trust-Rad. Augm. Hess. CNVTRAH         .... auto
   Auto Start mean grad. ratio tolernc. ....  1.125000
   Auto Start start iteration           ....    20
   Auto Start num. interpolation iter.  ....    10
   Max. Number of Micro iterations      ....    16
   Max. Number of Macro iterations      .... Maxiter - #DIIS iter
   Number of Davidson start vectors     ....     2
   Converg. threshold I  (grad. norm)   ....   1.000e-05
   Converg. threshold II (energy diff.) ....   1.000e-08
   Grad. Scal. Fac. for Micro threshold ....   0.100
   Minimum threshold for Micro iter.    ....   0.010
   NR start threshold (gradient norm)   ....   0.001
   Initial trust radius                 ....   0.400
   Minimum AH scaling param. (alpha)    ....   1.000
   Maximum AH scaling param. (alpha)    .... 1000.000
   Orbital update algorithm             .... Taylor
   White noise on init. David. guess    .... on
   Maximum white noise                  ....   0.010
   Quad. conv. algorithm                .... NR
 SOSCF                  CNVSOSCF        .... on
   Start iteration      SOSCFMaxIt      ....   150
   Startup grad/error   SOSCFStart      ....  0.003300
 Level Shifting         CNVShift        .... on
   Level shift para.    LevelShift      ....    0.2500
   Turn off err/grad.   ShiftErr        ....    0.0010
 Zerner damping         CNVZerner       .... off
 Static damping         CNVDamp         .... on
   Fraction old density DampFac         ....    0.7000
   Max. Damping (<1)    DampMax         ....    0.9800
   Min. Damping (>=0)   DampMin         ....    0.0000
   Turn off err/grad.   DampErr         ....    0.1000
 Fernandez-Rico         CNVRico         .... off

SCF Procedure:
 Maximum # iterations   MaxIter         ....   500
 SCF integral mode      SCFMode         .... Conventional
 Integral Threshold     Thresh          ....  2.500e-11 Eh
 Primitive CutOff       TCut            ....  2.500e-12 Eh
 Integral Buffer length BufferLength    .... 1048576
 Integral index format  IndFormat       ....     0
 Integral value format  ValFormat       ....     0
 Integral Storage       Thresh          ....  2.500e-11 Eh

Convergence Tolerance:
 Convergence Check Mode ConvCheckMode   .... Total+1el-Energy
 Convergence forced     ConvForced      .... 1
 Energy Change          TolE            ....  1.000e-08 Eh
 1-El. energy change                    ....  1.000e-05 Eh
 Orbital Gradient       TolG            ....  1.000e-05
 Orbital Rotation angle TolX            ....  1.000e-05
 DIIS Error             TolErr          ....  5.000e-07


Diagonalization of the overlap matrix:
Smallest eigenvalue                        ... 1.744e-01
Time for diagonalization                   ...    0.000 sec
Threshold for overlap eigenvalues          ... 1.000e-08
Number of eigenvalues below threshold      ... 0
Time for construction of square roots      ...    0.783 sec
Total time needed                          ...    0.783 sec

--------------------------------
INITIAL GUESS: MINIMAL BASIS EHT
--------------------------------
The minimal basis has 24 functions
EHT matrix was diagonalized
Basis set overlap was calculated now projecting the orbitals
Using GuessMode=FMatrix for the initial guess
C*T matrix was formed
Effective Fockian was calculated
Effective Fockian was diagonalized
Initial density was built
                      ------------------
                      INITIAL GUESS DONE
                      ------------------

 InCore treatment chosen:
   Memory dedicated               ...    1024 MB
   Memory needed                  ...      0 MB
   Number of tiny    integrals    ...     523
   Number of small   integrals    ...    2567
   Number of regular integrals    ...   40711

--------------
SCF ITERATIONS
--------------
ITER       Energy         Delta-E        Max-DP      RMS-DP      [F,P]     Damp
  0   -189.0036487726   0.000000000000 0.14092786  0.01411292  0.3256488 0.7000
  1   -189.1242848904  -0.120636117820 0.11891244  0.01135147  0.2184504 0.7000
                               ***Turning on DIIS***
  2   -189.2044677731  -0.080182882713 0.07640301  0.00751273  0.1522932 0.7000
  3   -189.2357321622  -0.031264389110 0.03558008  0.00460596  0.1097486 0.7000
  4   -189.2664614467  -0.030729284542 0.09425269  0.01124101  0.0774949 0.0000
  5   -189.3862147934  -0.119753346679 0.01068535  0.00112255  0.0079641 0.0000
                      *** Initiating the SOSCF procedure ***
                           *** Shutting down DIIS ***
                      *** Re-Reading the Fockian *** 
                      *** Removing any level shift *** 
ITER      Energy       Delta-E        Grad      Rot      Max-DP    RMS-DP
  6   -189.38726285  -0.0010480568  0.001531  0.001531  0.002753  0.000358
  7   -189.38739196  -0.0001291139  0.000615  0.000887  0.001881  0.000202
  8   -189.38739863  -0.0000066628  0.000311  0.000826  0.001268  0.000155
  9   -189.38740019  -0.0000015648  0.000113  0.000203  0.000360  0.000037
 10   -189.38740036  -0.0000001721  0.000063  0.000194  0.000372  0.000027
 11   -189.38740044  -0.0000000753  0.000028  0.000171  0.000323  0.000022
 12   -189.38740046  -0.0000000238  0.000009  0.000017  0.000036  0.000004
 13   -189.38740046  -0.0000000013  0.000004  0.000009  0.000023  0.000002
                 **** Energy Check signals convergence ****
              ***Rediagonalizing the Fockian in SOSCF/NRSCF***

               *****************************************************
               *                     SUCCESS                       *
               *           SCF CONVERGED AFTER  14 CYCLES          *
               *****************************************************


----------------
TOTAL SCF ENERGY
----------------

Total Energy       :         -189.38740046 Eh           -5153.49317 eV

Components:
Nuclear Repulsion  :          107.32374464 Eh            2920.42756 eV
Electronic Energy  :         -296.71114511 Eh           -8073.92073 eV
One Electron Energy:         -469.34297642 Eh          -12771.47168 eV
Two Electron Energy:          172.63183131 Eh            4697.55095 eV

Virial components:
Potential Energy   :         -378.66500108 Eh          -10303.99852 eV
Kinetic Energy     :          189.27760062 Eh            5150.50536 eV
Virial Ratio       :            2.00058010


---------------
SCF CONVERGENCE
---------------

  Last Energy change         ...   -2.7575e-10  Tolerance :   1.0000e-08
  Last MAX-Density change    ...    2.9427e-06  Tolerance :   1.0000e-07
  Last RMS-Density change    ...    3.7916e-07  Tolerance :   5.0000e-09
  Last Orbital Gradient      ...    9.0146e-07  Tolerance :   1.0000e-05
  Last Orbital Rotation      ...    1.3233e-06  Tolerance :   1.0000e-05

             **** THE GBW FILE WAS UPDATED (acrolien.1161.gbw) ****
             **** DENSITY acrolien.1161.scfp WAS UPDATED ****
             **** ENERGY FILE WAS UPDATED (acrolien.1161.en.tmp) ****
             **** THE GBW FILE WAS UPDATED (acrolien.1161.gbw) ****
             **** DENSITY acrolien.1161.scfp WAS UPDATED ****
----------------
ORBITAL ENERGIES
----------------

  NO   OCC          E(Eh)            E(eV) 
   0   2.0000     -20.370344      -554.3052 
   1   2.0000     -11.304820      -307.6198 
   2   2.0000     -11.192028      -304.5506 
   3   2.0000     -11.184602      -304.3485 
   4   2.0000      -1.439185       -39.1622 
   5   2.0000      -1.084831       -29.5198 
   6   2.0000      -0.899674       -24.4814 
   7   2.0000      -0.743682       -20.2366 
   8   2.0000      -0.702697       -19.1213 
   9   2.0000      -0.621981       -16.9250 
  10   2.0000      -0.600586       -16.3428 
  11   2.0000      -0.568823       -15.4785 
  12   2.0000      -0.520107       -14.1528 
  13   2.0000      -0.410543       -11.1715 
  14   2.0000      -0.395754       -10.7690 
  15   0.0000       0.135236         3.6800 
  16   0.0000       0.336120         9.1463 
  17   0.0000       0.521634        14.1944 
  18   0.0000       0.632019        17.1981 
  19   0.0000       0.649815        17.6824 
  20   0.0000       0.728342        19.8192 
  21   0.0000       0.863188        23.4885 
  22   0.0000       0.940947        25.6045 
  23   0.0000       1.078055        29.3354 

                    ********************************
                    * MULLIKEN POPULATION ANALYSIS *
                    ********************************

-----------------------
MULLIKEN ATOMIC CHARGES
-----------------------
   0 C :    0.171494
   1 O :   -0.363365
   2 C :   -0.172440
   3 C :   -0.216702
   4 H :    0.131399
   5 H :    0.141462
   6 H :    0.163555
   7 H :    0.144597
Sum of atomic charges:   -0.0000000

--------------------------------
MULLIKEN REDUCED ORBITAL CHARGES
--------------------------------
  0 C s       :     3.028220  s :     3.028220
      pz      :     0.873180  p :     2.800287
      px      :     1.075785
      py      :     0.851321
  1 O s       :     3.817137  s :     3.817137
      pz      :     1.177012  p :     4.546229
      px      :     1.908612
      py      :     1.460604
  2 C s       :     3.079003  s :     3.079003
      pz      :     1.040862  p :     3.093437
      px      :     0.988118
      py      :     1.064457
  3 C s       :     3.140145  s :     3.140145
      pz      :     0.910012  p :     3.076557
      px      :     1.059866
      py      :     1.106680
  4 H s       :     0.868601  s :     0.868601
  5 H s       :     0.858538  s :     0.858538
  6 H s       :     0.836445  s :     0.836445
  7 H s       :     0.855403  s :     0.855403


                     *******************************
                     * LOEWDIN POPULATION ANALYSIS *
                     *******************************

----------------------
LOEWDIN ATOMIC CHARGES
----------------------
   0 C :    0.140600
   1 O :   -0.254308
   2 C :   -0.137915
   3 C :   -0.115476
   4 H :    0.068776
   5 H :    0.096149
   6 H :    0.110840
   7 H :    0.091335

-------------------------------
LOEWDIN REDUCED ORBITAL CHARGES
-------------------------------
  0 C s       :     2.956428  s :     2.956428
      pz      :     0.876468  p :     2.902972
      px      :     1.081231
      py      :     0.945273
  1 O s       :     3.666979  s :     3.666979
      pz      :     1.174540  p :     4.587329
      px      :     1.911867
      py      :     1.500921
  2 C s       :     2.972103  s :     2.972103
      pz      :     1.036422  p :     3.165813
      px      :     1.055361
      py      :     1.074030
  3 C s       :     3.004275  s :     3.004275
      pz      :     0.913553  p :     3.111201
      px      :     1.096737
      py      :     1.100910
  4 H s       :     0.931224  s :     0.931224
  5 H s       :     0.903851  s :     0.903851
  6 H s       :     0.889160  s :     0.889160
  7 H s       :     0.908665  s :     0.908665


                      *****************************
                      * MAYER POPULATION ANALYSIS *
                      *****************************

  NA   - Mulliken gross atomic population
  ZA   - Total nuclear charge
  QA   - Mulliken gross atomic charge
  VA   - Mayer's total valence
  BVA  - Mayer's bonded valence
  FA   - Mayer's free valence

  ATOM       NA         ZA         QA         VA         BVA        FA
  0 C      5.8285     6.0000     0.1715     3.8700     3.8700    -0.0000
  1 O      8.3634     8.0000    -0.3634     2.0657     2.0657     0.0000
  2 C      6.1724     6.0000    -0.1724     3.9766     3.9766    -0.0000
  3 C      6.2167     6.0000    -0.2167     3.9416     3.9416    -0.0000
  4 H      0.8686     1.0000     0.1314     0.9827     0.9827     0.0000
  5 H      0.8585     1.0000     0.1415     0.9800     0.9800     0.0000
  6 H      0.8364     1.0000     0.1636     0.9732     0.9732     0.0000
  7 H      0.8554     1.0000     0.1446     0.9791     0.9791    -0.0000

  Mayer bond orders larger than 0.100000
B(  0-C ,  1-O ) :   1.8936 B(  0-C ,  2-C ) :   1.0433 B(  0-C ,  4-H ) :   0.9168 
B(  2-C ,  3-C ) :   1.9349 B(  2-C ,  5-H ) :   0.9551 B(  3-C ,  6-H ) :   0.9561 
B(  3-C ,  7-H ) :   0.9659 

-------
TIMINGS
-------

Total SCF time: 0 days 0 hours 0 min 2 sec 

Total time                  ....       2.525 sec
Sum of individual times     ....       0.124 sec  (  4.9%)

Fock matrix formation       ....       0.112 sec  (  4.4%)
Diagonalization             ....       0.001 sec  (  0.1%)
Density matrix formation    ....       0.000 sec  (  0.0%)
Population analysis         ....       0.002 sec  (  0.1%)
Initial guess               ....       0.002 sec  (  0.1%)
Orbital Transformation      ....       0.000 sec  (  0.0%)
Orbital Orthonormalization  ....       0.000 sec  (  0.0%)
DIIS solution               ....       0.001 sec  (  0.1%)
SOSCF solution              ....       0.005 sec  (  0.2%)

Maximum memory used throughout the entire SCF-calculation: 225.0 MB
------------------------------------------------------------------------------
                         ORCA CIS CALCULATION
------------------------------------------------------------------------------

Input orbitals are from        ... acrolien.1161.gbw
CI-vector output               ... acrolien.1161.cis
Tamm-Dancoff approximation     ... operative
CIS-Integral strategy          ... AO-integrals
Integral handling              ... AO integral Conventional
Reference state                ... RHF
Generation of triplets         ... off
Follow IRoot                   ... off
Number of operators            ... 1
Orbital ranges used for CIS calculation:
 Operator 0:  Orbitals   4... 14  to  15... 23
XAS localization array:
 Operator 0:  Orbitals  -1... -1

------------------------
DAVIDSON-DIAGONALIZATION
------------------------

Dimension of the eigenvalue problem            ...     99
Number of roots to be determined               ...      1
Maximum size of the expansion space            ...     10
Maximum number of iterations                   ...    100
Convergence tolerance for the residual         ...    2.500e-07
Convergence tolerance for the energies         ...    2.500e-07
Orthogonality tolerance                        ...    1.000e-14
Level Shift                                    ...    0.000e+00
Constructing the preconditioner                ... o.k.
Building the initial guess                     ... o.k.
Number of trial vectors determined             ...     10


                       ****Iteration    0****

   Memory handling for direct AO based CIS:
   Memory per vector needed      ...     1 MB
   Memory needed                 ...     0 MB
   Memory available              ...   512 MB
   Number of vectors per batch   ...   512
   Number of batches             ...     1
   Time for densities:            0.000
   SHARK[4]
   Time for Sigma-Completion:     0.001
   Size of expansion space: 3
   Lowest Energy          :     0.212779454793
   Maximum Energy change  :     0.212779454793 (vector 0)
   Maximum residual norm  :     0.014953371513

                       ****Iteration    1****
   Time for densities:            0.000
   SHARK[4]
   Time for Sigma-Completion:     0.000
   Size of expansion space: 4
   Lowest Energy          :     0.159338773913
   Maximum Energy change  :     0.053440680881 (vector 0)
   Maximum residual norm  :     0.001247906186

                       ****Iteration    2****
   Time for densities:            0.000
   SHARK[4]
   Time for Sigma-Completion:     0.000
   Size of expansion space: 5
   Lowest Energy          :     0.156225948081
   Maximum Energy change  :     0.003112825832 (vector 0)
   Maximum residual norm  :     0.000089151921

                       ****Iteration    3****
   Time for densities:            0.000
   SHARK[4]
   Time for Sigma-Completion:     0.000
   Size of expansion space: 6
   Lowest Energy          :     0.156056473967
   Maximum Energy change  :     0.000169474113 (vector 0)
   Maximum residual norm  :     0.000009626318

                       ****Iteration    4****
   Time for densities:            0.000
   SHARK[4]
   Time for Sigma-Completion:     0.000
   Size of expansion space: 7
   Lowest Energy          :     0.156042542596
   Maximum Energy change  :     0.000013931371 (vector 0)
   Maximum residual norm  :     0.000000846448

                       ****Iteration    5****
   Time for densities:            0.000
   SHARK[4]
   Time for Sigma-Completion:     0.000
   Size of expansion space: 8
   Lowest Energy          :     0.156041369458
   Maximum Energy change  :     0.000001173138 (vector 0)
   Maximum residual norm  :     0.000000053765

      *** CONVERGENCE OF RESIDUAL NORM REACHED ***

Storing the converged CI vectors               ... acrolien.1161.cis1

                 *** DAVIDSON DONE ***

Total time for solving the CIS problem:     1.458sec

-----------------------------
CIS-EXCITED STATES (SINGLETS)
-----------------------------

the weight of the individual excitations are printed if larger than 1.0e-02

STATE  1:  E=   0.156041 au      4.246 eV    34247.1 cm**-1 <S**2> =   0.000000
    10a ->  15a  :     0.010831 (c= -0.10407444)
    13a ->  15a  :     0.793718 (c=  0.89090834)
    13a ->  16a  :     0.152810 (c=  0.39090925)


----------------------
CIS-EXCITATION SPECTRA
----------------------

Center of mass = (  0.5759, -0.9079,  0.0003)
Calculating the Dipole integrals                  ... done
Transforming integrals                            ... done
Calculating the Linear Momentum integrals         ... done
Transforming integrals                            ... done
Calculating angular momentum integrals            ... done
Transforming integrals                            ... done

-----------------------------------------------------------------------------
         ABSORPTION SPECTRUM VIA TRANSITION ELECTRIC DIPOLE MOMENTS
-----------------------------------------------------------------------------
State   Energy    Wavelength  fosc         T2        TX        TY        TZ  
        (cm-1)      (nm)                 (au**2)    (au)      (au)      (au) 
-----------------------------------------------------------------------------
   1   34247.1    292.0   0.000112436   0.00108   0.03012   0.00111   0.01312

-----------------------------------------------------------------------------
         ABSORPTION SPECTRUM VIA TRANSITION VELOCITY DIPOLE MOMENTS
-----------------------------------------------------------------------------
State   Energy    Wavelength   fosc        P2         PX        PY        PZ  
        (cm-1)      (nm)                 (au**2)     (au)      (au)      (au) 
-----------------------------------------------------------------------------
   1   34247.1    292.0   0.001039751   0.00024  -0.00330  -0.00058  -0.01524

-------------------------------------------------------------------
                             CD SPECTRUM
-------------------------------------------------------------------
State  Energy     Wavelength     R         MX        MY        MZ   
       (cm-1)       (nm)     (1e40*cgs)   (au)      (au)      (au)  
-------------------------------------------------------------------
   1   34247.1    292.0      0.49428   0.02331   0.47681  -0.01403

-------------------------------------------------------------------
         CD SPECTRUM VIA TRANSITION VELOCITY DIPOLE MOMENTS        
-------------------------------------------------------------------
State  Energy     Wavelength     R         MX        MY        MZ   
       (cm-1)       (nm)     (1e40*cgs)   (au)      (au)      (au)  
-------------------------------------------------------------------
   1   34247.1    292.0     -0.41909   0.02331   0.47681  -0.01403

Total run time:        3.215 sec

           *** ORCA-CIS/TD-DFT FINISHED WITHOUT ERROR ***

Maximum memory used throughout the entire CIS-calculation: 51.7 MB

-----------------------
CIS/TD-DFT TOTAL ENERGY
-----------------------

    E(SCF)  =   -189.387400464 Eh
    DE(CIS) =      0.156041369 Eh (Root  1)
    ----------------------------- ---------
    E(tot)  =   -189.231359095 Eh



-------------------------------------------------------------------------------
                          DFT DISPERSION CORRECTION                            
                                                                               
                              DFTD3 V3.1  Rev 1                                
                          USING Becke-Johnson damping                          
-------------------------------------------------------------------------------
Hartree-Fock is recognized
Active option DFTDOPT                   ...         4   

molecular C6(AA) [au] = 660.541728 


            DFT-D V3
 parameters
 using HF/MINIX parameters
 s6 scaling factor         :     1.0000 
 a1 scaling factor         :     0.4171 
 s8 scaling factor         :     0.8777 
 a2 scaling factor         :     2.9149 
 ad hoc parameters k1-k3   :    16.0000     1.3333    -4.0000 

 Edisp/kcal,au: -16.437101217142  -0.026194185336 
 E6   /kcal   :  -9.081196910 
 E8   /kcal   :  -7.355904307 
 % E8         :  44.751834339 

-------------------------   ----------------
Dispersion correction           -0.026194185
-------------------------   ----------------

------------------   -----------------
gCP+bas correction        -0.062190854
------------------   -----------------
----------------------------   ----------------
Total correction to HF/MINIX       -0.088385040
----------------------------   ----------------


-------------------------   --------------------
FINAL SINGLE POINT ENERGY      -189.319744134800
-------------------------   --------------------


                            ***************************************
                            *     ORCA property calculations      *
                            ***************************************

                                    ---------------------
                                    Active property flags
                                    ---------------------
   (+) Dipole Moment


------------------------------------------------------------------------------
                       ORCA ELECTRIC PROPERTIES CALCULATION
------------------------------------------------------------------------------

Dipole Moment Calculation                       ... on
Quadrupole Moment Calculation                   ... off
Polarizability Calculation                      ... off
GBWName                                         ... acrolien.1161.gbw
Electron density                                ... acrolien.1161.scfp
The origin for moment calculation is the CENTER OF MASS  = ( 0.575851, -0.907896  0.000337)

-------------
DIPOLE MOMENT
-------------
                                X             Y             Z
Electronic contribution:     -1.85590      -1.69700      -0.13205
Nuclear contribution   :      2.16209       2.59423       0.17799
                        -----------------------------------------
Total Dipole Moment    :      0.30619       0.89723       0.04595
                        -----------------------------------------
Magnitude (a.u.)       :      0.94915
Magnitude (Debye)      :      2.41255



--------------------
Rotational spectrum 
--------------------
 
Rotational constants in cm-1:     0.781327     0.225009     0.174852 
Rotational constants in MHz : 23423.590844  6745.596961  5241.930370 

 Dipole components along the rotational axes: 
x,y,z [a.u.] :     0.715364     0.622193     0.044952 
x,y,z [Debye]:     1.818310     1.581489     0.114258 

 

Timings for individual modules:

Sum of individual times         ...       11.326 sec (=   0.189 min)
GTO integral calculation        ...        4.728 sec (=   0.079 min)  41.7 %
SCF iterations                  ...        3.026 sec (=   0.050 min)  26.7 %
CIS module                      ...        3.572 sec (=   0.060 min)  31.5 %
                             ****ORCA TERMINATED NORMALLY****
TOTAL RUN TIME: 0 days 0 hours 0 minutes 14 seconds 767 msec
