
                                 *****************
                                 * O   R   C   A *
                                 *****************

                                            #,                                       
                                            ###                                      
                                            ####                                     
                                            #####                                    
                                            ######                                   
                                           ########,                                 
                                     ,,################,,,,,                         
                               ,,#################################,,                 
                          ,,##########################################,,             
                       ,#########################################, ''#####,          
                    ,#############################################,,   '####,        
                  ,##################################################,,,,####,       
                ,###########''''           ''''###############################       
              ,#####''   ,,,,##########,,,,          '''####'''          '####       
            ,##' ,,,,###########################,,,                        '##       
           ' ,,###''''                  '''############,,,                           
         ,,##''                                '''############,,,,        ,,,,,,###''
      ,#''                                            '''#######################'''  
     '                                                          ''''####''''         
             ,#######,   #######,   ,#######,      ##                                
            ,#'     '#,  ##    ##  ,#'     '#,    #''#        ######   ,####,        
            ##       ##  ##   ,#'  ##            #'  '#       #        #'  '#        
            ##       ##  #######   ##           ,######,      #####,   #    #        
            '#,     ,#'  ##    ##  '#,     ,#' ,#      #,         ##   #,  ,#        
             '#######'   ##     ##  '#######'  #'      '#     #####' # '####'        



                  #######################################################
                  #                        -***-                        #
                  #          Department of theory and spectroscopy      #
                  #    Directorship and core code : Frank Neese         #
                  #        Max Planck Institute fuer Kohlenforschung    #
                  #                Kaiser Wilhelm Platz 1               #
                  #                 D-45470 Muelheim/Ruhr               #
                  #                      Germany                        #
                  #                                                     #
                  #                  All rights reserved                #
                  #                        -***-                        #
                  #######################################################


                         Program Version 5.0.3 -  RELEASE  -


 With contributions from (in alphabetic order):
   Daniel Aravena         : Magnetic Suceptibility
   Michael Atanasov       : Ab Initio Ligand Field Theory (pilot matlab implementation)
   Alexander A. Auer      : GIAO ZORA, VPT2 properties, NMR spectrum
   Ute Becker             : Parallelization
   Giovanni Bistoni       : ED, misc. LED, open-shell LED, HFLD
   Martin Brehm           : Molecular dynamics
   Dmytro Bykov           : SCF Hessian
   Vijay G. Chilkuri      : MRCI spin determinant printing, contributions to CSF-ICE
   Dipayan Datta          : RHF DLPNO-CCSD density
   Achintya Kumar Dutta   : EOM-CC, STEOM-CC
   Dmitry Ganyushin       : Spin-Orbit,Spin-Spin,Magnetic field MRCI
   Miquel Garcia          : C-PCM and meta-GGA Hessian, CC/C-PCM, Gaussian charge scheme
   Yang Guo               : DLPNO-NEVPT2, F12-NEVPT2, CIM, IAO-localization
   Andreas Hansen         : Spin unrestricted coupled pair/coupled cluster methods
   Benjamin Helmich-Paris : MC-RPA, TRAH-SCF, COSX integrals
   Lee Huntington         : MR-EOM, pCC
   Robert Izsak           : Overlap fitted RIJCOSX, COSX-SCS-MP3, EOM
   Marcus Kettner         : VPT2
   Christian Kollmar      : KDIIS, OOCD, Brueckner-CCSD(T), CCSD density, CASPT2, CASPT2-K
   Simone Kossmann        : Meta GGA functionals, TD-DFT gradient, OOMP2, MP2 Hessian
   Martin Krupicka        : Initial AUTO-CI
   Lucas Lang             : DCDCAS
   Marvin Lechner         : AUTO-CI (C++ implementation), FIC-MRCC
   Dagmar Lenk            : GEPOL surface, SMD
   Dimitrios Liakos       : Extrapolation schemes; Compound Job, initial MDCI parallelization
   Dimitrios Manganas     : Further ROCIS development; embedding schemes
   Dimitrios Pantazis     : SARC Basis sets
   Anastasios Papadopoulos: AUTO-CI, single reference methods and gradients
   Taras Petrenko         : DFT Hessian,TD-DFT gradient, ASA, ECA, R-Raman, ABS, FL, XAS/XES, NRVS
   Peter Pinski           : DLPNO-MP2, DLPNO-MP2 Gradient
   Christoph Reimann      : Effective Core Potentials
   Marius Retegan         : Local ZFS, SOC
   Christoph Riplinger    : Optimizer, TS searches, QM/MM, DLPNO-CCSD(T), (RO)-DLPNO pert. Triples
   Tobias Risthaus        : Range-separated hybrids, TD-DFT gradient, RPA, STAB
   Michael Roemelt        : Original ROCIS implementation
   Masaaki Saitow         : Open-shell DLPNO-CCSD energy and density
   Barbara Sandhoefer     : DKH picture change effects
   Avijit Sen             : IP-ROCIS
   Kantharuban Sivalingam : CASSCF convergence, NEVPT2, FIC-MRCI
   Bernardo de Souza      : ESD, SOC TD-DFT
   Georgi Stoychev        : AutoAux, RI-MP2 NMR, DLPNO-MP2 response
   Willem Van den Heuvel  : Paramagnetic NMR
   Boris Wezisla          : Elementary symmetry handling
   Frank Wennmohs         : Technical directorship


 We gratefully acknowledge several colleagues who have allowed us to
 interface, adapt or use parts of their codes:
   Stefan Grimme, W. Hujo, H. Kruse, P. Pracht,  : VdW corrections, initial TS optimization,
                  C. Bannwarth, S. Ehlert          DFT functionals, gCP, sTDA/sTD-DF
   Ed Valeev, F. Pavosevic, A. Kumar             : LibInt (2-el integral package), F12 methods
   Garnet Chan, S. Sharma, J. Yang, R. Olivares  : DMRG
   Ulf Ekstrom                                   : XCFun DFT Library
   Mihaly Kallay                                 : mrcc  (arbitrary order and MRCC methods)
   Jiri Pittner, Ondrej Demel                    : Mk-CCSD
   Frank Weinhold                                : gennbo (NPA and NBO analysis)
   Christopher J. Cramer and Donald G. Truhlar   : smd solvation model
   Lars Goerigk                                  : TD-DFT with DH, B97 family of functionals
   V. Asgeirsson, H. Jonsson                     : NEB implementation
   FAccTs GmbH                                   : IRC, NEB, NEB-TS, DLPNO-Multilevel, CI-OPT
                                                   MM, QMMM, 2- and 3-layer-ONIOM, Crystal-QMMM,
                                                   LR-CPCM, SF, NACMEs, symmetry and pop. for TD-DFT,
                                                   nearIR, NL-DFT gradient (VV10), updates on ESD,
                                                   ML-optimized integration grids
   S Lehtola, MJT Oliveira, MAL Marques          : LibXC Library
   Liviu Ungur et al                             : ANISO software


 Your calculation uses the libint2 library for the computation of 2-el integrals
 For citations please refer to: http://libint.valeyev.net

 Your ORCA version has been built with support for libXC version: 5.1.0
 For citations please refer to: https://tddft.org/programs/libxc/

 This ORCA versions uses:
   CBLAS   interface :  Fast vector & matrix operations
   LAPACKE interface :  Fast linear algebra routines
   SCALAPACK package :  Parallel linear algebra routines
   Shared memory     :  Shared parallel matrices
   BLAS/LAPACK       :  OpenBLAS 0.3.15  USE64BITINT DYNAMIC_ARCH NO_AFFINITY Haswell SINGLE_THREADED
        Core in use  :  Haswell
   Copyright (c) 2011-2014, The OpenBLAS Project


Your calculation utilizes the geometrical counterpoise correction gCP
Please cite in your paper:
H.Kruse, S. Grimme J.Chem.Phys., 136, (2012), 154101 
   

Your calculation utilizes the atom-pairwise dispersion correction
with the Becke-Johnson damping scheme (D3BJ)
Cite in your paper:
S.Grimme, S.Ehrlich, L.Goerigk, J Comput Chem, (2011), 32, 1456–1465 
S.Grimme, J.Antony, S.Ehrlich and H.Krieg, J.Chem.Phys., 132, (2010), 154104 
   

================================================================================

----- Orbital basis set information -----
Your calculation utilizes the basis: MINIX,
   a combination of small basis sets by S. Grimme (see manual for definitions).

================================================================================
                                        WARNINGS
                       Please study these warnings very carefully!
================================================================================

INFO   : Checking CIS options ...

INFO   : the flag for use of the SHARK integral package has been found!

================================================================================
                                       INPUT FILE
================================================================================
NAME = acrolien.858.com
|  1> ! HF-3c
|  2> !TightSCF
|  3> %scf
|  4>  ConvForced true
|  5>  convergence tight
|  6>  MaxIter 500
|  7> end
|  8>  
|  9> %tddft 
| 10>  nroots 1
| 11> end
| 12> 
| 13> # 	26831
| 14> * xyz 0 1
| 15> 		C   -0.575309  -0.424320  -0.045203
| 16> 		O   -0.574028  -1.636981   0.049042
| 17> 		C    0.589081   0.413025   0.014603
| 18> 		C    1.850183  -0.126775  -0.028676
| 19> 		H   -1.411429   0.062355  -0.295122
| 20> 		H    0.521314   1.608740   0.317417
| 21> 		H    1.875087  -1.227452  -0.321864
| 22> 		H    2.881650   0.425418   0.265226
| 23> *
| 24> 
| 25>                          ****END OF INPUT****
================================================================================

                       ****************************
                       * Single Point Calculation *
                       ****************************

---------------------------------
CARTESIAN COORDINATES (ANGSTROEM)
---------------------------------
  C     -0.575309   -0.424320   -0.045203
  O     -0.574028   -1.636981    0.049042
  C      0.589081    0.413025    0.014603
  C      1.850183   -0.126775   -0.028676
  H     -1.411429    0.062355   -0.295122
  H      0.521314    1.608740    0.317417
  H      1.875087   -1.227452   -0.321864
  H      2.881650    0.425418    0.265226

----------------------------
CARTESIAN COORDINATES (A.U.)
----------------------------
  NO LB      ZA    FRAG     MASS         X           Y           Z
   0 C     6.0000    0    12.011   -1.087176   -0.801849   -0.085421
   1 O     8.0000    0    15.999   -1.084756   -3.093446    0.092676
   2 C     6.0000    0    12.011    1.113202    0.780504    0.027596
   3 C     6.0000    0    12.011    3.496339   -0.239570   -0.054190
   4 H     1.0000    0     1.008   -2.667214    0.117834   -0.557700
   5 H     1.0000    0     1.008    0.985141    3.040078    0.599831
   6 H     1.0000    0     1.008    3.543401   -2.319548   -0.608235
   7 H     1.0000    0     1.008    5.445529    0.803924    0.501205

--------------------------------
INTERNAL COORDINATES (ANGSTROEM)
--------------------------------
 C      0   0   0     0.000000000000     0.00000000     0.00000000
 O      1   0   0     1.216318404821     0.00000000     0.00000000
 C      1   2   0     1.435453753613   125.27452080     0.00000000
 C      3   1   2     1.372455961496   120.97124571    10.69651728
 H      1   2   3     0.999204041518   120.38842454   171.89743094
 H      3   1   2     1.235323053339   122.02857948   202.41764909
 H      4   3   1     1.139328429773   114.08970097    11.66709287
 H      4   3   1     1.206324859622   126.72360301   195.25283956

---------------------------
INTERNAL COORDINATES (A.U.)
---------------------------
 C      0   0   0     0.000000000000     0.00000000     0.00000000
 O      1   0   0     2.298508676760     0.00000000     0.00000000
 C      1   2   0     2.712614472237   125.27452080     0.00000000
 C      3   1   2     2.593565898094   120.97124571    10.69651728
 H      1   2   3     1.888221990376   120.38842454   171.89743094
 H      3   1   2     2.334422257730   122.02857948   202.41764909
 H      4   3   1     2.153018708861   114.08970097    11.66709287
 H      4   3   1     2.279623613227   126.72360301   195.25283956

---------------------
BASIS SET INFORMATION
---------------------
There are 3 groups of distinct atoms

 Group   1 Type C   : 6s3p contracted to 2s1p pattern {33/3}
 Group   2 Type O   : 6s3p contracted to 2s1p pattern {33/3}
 Group   3 Type H   : 3s contracted to 1s pattern {3}

Atom   0C    basis set group =>   1
Atom   1O    basis set group =>   2
Atom   2C    basis set group =>   1
Atom   3C    basis set group =>   1
Atom   4H    basis set group =>   3
Atom   5H    basis set group =>   3
Atom   6H    basis set group =>   3
Atom   7H    basis set group =>   3
------------------------------------------------------------------------------
                           ORCA GTO INTEGRAL CALCULATION
------------------------------------------------------------------------------
------------------------------------------------------------------------------
                   ___                                                        
                  /   \      - P O W E R E D   B Y -                         
                 /     \                                                     
                 |  |  |   _    _      __       _____    __    __             
                 |  |  |  | |  | |    /  \     |  _  \  |  |  /  |          
                  \  \/   | |  | |   /    \    | | | |  |  | /  /          
                 / \  \   | |__| |  /  /\  \   | |_| |  |  |/  /          
                |  |  |   |  __  | /  /__\  \  |    /   |      \           
                |  |  |   | |  | | |   __   |  |    \   |  |\   \          
                \     /   | |  | | |  |  |  |  | |\  \  |  | \   \       
                 \___/    |_|  |_| |__|  |__|  |_| \__\ |__|  \__/        
                                                                              
                      - O R C A' S   B I G   F R I E N D -                    
                                      &                                       
                       - I N T E G R A L  F E E D E R -                       
                                                                              
 v1 FN, 2020, v2 2021                                                         
------------------------------------------------------------------------------


Reading SHARK input file acrolien.858.SHARKINP.tmp ... ok
----------------------
SHARK INTEGRAL PACKAGE
----------------------

Number of atoms                             ...      8
Number of basis functions                   ...     24
Number of shells                            ...     16
Maximum angular momentum                    ...      1
Integral batch strategy                     ... SHARK/LIBINT Hybrid
RI-J (if used) integral strategy            ... SPLIT-RIJ (Revised 2003 algorithm where possible)
Printlevel                                  ...      1
Contraction scheme used                     ... SEGMENTED contraction
Coulomb Range Separation                    ... NOT USED
Exchange Range Separation                   ... NOT USED
Finite Nucleus Model                        ... NOT USED
Auxiliary Coulomb fitting basis             ... NOT available
Auxiliary J/K fitting basis                 ... NOT available
Auxiliary Correlation fitting basis         ... NOT available
Auxiliary 'external' fitting basis          ... NOT available
Integral threshold                          ...     2.500000e-11
Primitive cut-off                           ...     2.500000e-12
Primitive pair pre-selection threshold      ...     2.500000e-12

Calculating pre-screening integrals         ... done (  0.0 sec) Dimension = 16
Organizing shell pair data                  ... done (  0.0 sec)
Shell pair information
Total number of shell pairs                 ...       136
Shell pairs after pre-screening             ...       133
Total number of primitive shell pairs       ...      1224
Primitive shell pairs kept                  ...      1000
          la=0 lb=0:     75 shell pairs
          la=1 lb=0:     48 shell pairs
          la=1 lb=1:     10 shell pairs

Calculating one electron integrals          ... done (  0.0 sec)
Calculating Nuclear repulsion               ... done (  0.0 sec) ENN=    104.236192782482 Eh
Calculating 4-index integrals               ... 
    -> SHARK/Ints2Disk: Thresh =     2.500000e-11 TCut=    2.500000e-12 
    -> calling libint FockFlag=2 Lmax_loc=1
    ->Total LIBINT loop time =    0.000 sec
    -> L=0 0 0 0:     0.003 sec done=      2825 (=100.0%) skipped=         0 
    -> L=1 0 0 0:     0.007 sec done=      3596 (=100.0%) skipped=         0 
    -> L=1 0 1 0:     0.004 sec done=      1176 (=100.0%) skipped=         0 
    -> L=1 1 0 0:     0.003 sec done=       750 (=100.0%) skipped=         0 
    -> L=1 1 1 0:     0.004 sec done=       480 (=100.0%) skipped=         0 
    -> L=1 1 1 1:     0.001 sec done=        55 (=100.0%) skipped=         0 
    ->Total SHARK integral loop time =    0.022 sec
    -> Total Integral generation matrix time =    0.147 sec
    -> Number of small integrals   =       624
    -> Number of medium integrals  =      2206
    -> Number of large integrals   =     40944
    -> Number of MB stored         =         0 MB


SHARK setup successfully completed in   1.0 seconds

Maximum memory used throughout the entire GTOINT-calculation: 29.5 MB
-------------------------------------------------------------------------------
                                 ORCA SCF
-------------------------------------------------------------------------------

------------
SCF SETTINGS
------------
Hamiltonian:
 Ab initio Hamiltonian  Method          .... Hartree-Fock(GTOs)


General Settings:
 Integral files         IntName         .... acrolien.858
 Hartree-Fock type      HFTyp           .... RHF
 Total Charge           Charge          ....    0
 Multiplicity           Mult            ....    1
 Number of Electrons    NEL             ....   30
 Basis Dimension        Dim             ....   24
 Nuclear Repulsion      ENuc            ....    104.2361927825 Eh

Convergence Acceleration:
 DIIS                   CNVDIIS         .... on
   Start iteration      DIISMaxIt       ....    12
   Startup error        DIISStart       ....  0.200000
   # of expansion vecs  DIISMaxEq       ....     5
   Bias factor          DIISBfac        ....   1.050
   Max. coefficient     DIISMaxC        ....  10.000
 Trust-Rad. Augm. Hess. CNVTRAH         .... auto
   Auto Start mean grad. ratio tolernc. ....  1.125000
   Auto Start start iteration           ....    20
   Auto Start num. interpolation iter.  ....    10
   Max. Number of Micro iterations      ....    16
   Max. Number of Macro iterations      .... Maxiter - #DIIS iter
   Number of Davidson start vectors     ....     2
   Converg. threshold I  (grad. norm)   ....   1.000e-05
   Converg. threshold II (energy diff.) ....   1.000e-08
   Grad. Scal. Fac. for Micro threshold ....   0.100
   Minimum threshold for Micro iter.    ....   0.010
   NR start threshold (gradient norm)   ....   0.001
   Initial trust radius                 ....   0.400
   Minimum AH scaling param. (alpha)    ....   1.000
   Maximum AH scaling param. (alpha)    .... 1000.000
   Orbital update algorithm             .... Taylor
   White noise on init. David. guess    .... on
   Maximum white noise                  ....   0.010
   Quad. conv. algorithm                .... NR
 SOSCF                  CNVSOSCF        .... on
   Start iteration      SOSCFMaxIt      ....   150
   Startup grad/error   SOSCFStart      ....  0.003300
 Level Shifting         CNVShift        .... on
   Level shift para.    LevelShift      ....    0.2500
   Turn off err/grad.   ShiftErr        ....    0.0010
 Zerner damping         CNVZerner       .... off
 Static damping         CNVDamp         .... on
   Fraction old density DampFac         ....    0.7000
   Max. Damping (<1)    DampMax         ....    0.9800
   Min. Damping (>=0)   DampMin         ....    0.0000
   Turn off err/grad.   DampErr         ....    0.1000
 Fernandez-Rico         CNVRico         .... off

SCF Procedure:
 Maximum # iterations   MaxIter         ....   500
 SCF integral mode      SCFMode         .... Conventional
 Integral Threshold     Thresh          ....  2.500e-11 Eh
 Primitive CutOff       TCut            ....  2.500e-12 Eh
 Integral Buffer length BufferLength    .... 1048576
 Integral index format  IndFormat       ....     0
 Integral value format  ValFormat       ....     0
 Integral Storage       Thresh          ....  2.500e-11 Eh

Convergence Tolerance:
 Convergence Check Mode ConvCheckMode   .... Total+1el-Energy
 Convergence forced     ConvForced      .... 1
 Energy Change          TolE            ....  1.000e-08 Eh
 1-El. energy change                    ....  1.000e-05 Eh
 Orbital Gradient       TolG            ....  1.000e-05
 Orbital Rotation angle TolX            ....  1.000e-05
 DIIS Error             TolErr          ....  5.000e-07


Diagonalization of the overlap matrix:
Smallest eigenvalue                        ... 1.942e-01
Time for diagonalization                   ...    0.000 sec
Threshold for overlap eigenvalues          ... 1.000e-08
Number of eigenvalues below threshold      ... 0
Time for construction of square roots      ...    0.001 sec
Total time needed                          ...    0.001 sec

--------------------------------
INITIAL GUESS: MINIMAL BASIS EHT
--------------------------------
The minimal basis has 24 functions
EHT matrix was diagonalized
Basis set overlap was calculated now projecting the orbitals
Using GuessMode=FMatrix for the initial guess
C*T matrix was formed
Effective Fockian was calculated
Effective Fockian was diagonalized
Initial density was built
                      ------------------
                      INITIAL GUESS DONE
                      ------------------

 InCore treatment chosen:
   Memory dedicated               ...    1024 MB
   Memory needed                  ...      0 MB
   Number of tiny    integrals    ...     624
   Number of small   integrals    ...    2206
   Number of regular integrals    ...   40944

--------------
SCF ITERATIONS
--------------
ITER       Energy         Delta-E        Max-DP      RMS-DP      [F,P]     Damp
  0   -189.0155435845   0.000000000000 0.15885009  0.01517753  0.3402156 0.7000
  1   -189.1344508970  -0.118907312451 0.13356692  0.01215631  0.2269499 0.7000
                               ***Turning on DIIS***
  2   -189.2097546893  -0.075303792297 0.08389447  0.00777405  0.1393504 0.7000
  3   -189.2460815072  -0.036326817908 0.03713876  0.00435733  0.1005211 0.7000
  4   -189.2733773756  -0.027295868418 0.09109499  0.01037121  0.0709971 0.0000
  5   -189.3728630294  -0.099485653740 0.01317982  0.00121875  0.0095732 0.0000
                      *** Initiating the SOSCF procedure ***
                           *** Shutting down DIIS ***
                      *** Re-Reading the Fockian *** 
                      *** Removing any level shift *** 
ITER      Energy       Delta-E        Grad      Rot      Max-DP    RMS-DP
  6   -189.37362287  -0.0007598429  0.001596  0.001596  0.003163  0.000417
  7   -189.37392655  -0.0003036734  0.000754  0.001059  0.002066  0.000246
  8   -189.37393642  -0.0000098758  0.000381  0.001120  0.001759  0.000223
  9   -189.37393922  -0.0000027994  0.000123  0.000214  0.000365  0.000049
 10   -189.37393950  -0.0000002753  0.000082  0.000167  0.000297  0.000028
 11   -189.37393959  -0.0000000988  0.000040  0.000228  0.000398  0.000031
 12   -189.37393964  -0.0000000418  0.000010  0.000039  0.000072  0.000005
 13   -189.37393964  -0.0000000031  0.000006  0.000024  0.000049  0.000005
                 **** Energy Check signals convergence ****
              ***Rediagonalizing the Fockian in SOSCF/NRSCF***

               *****************************************************
               *                     SUCCESS                       *
               *           SCF CONVERGED AFTER  14 CYCLES          *
               *****************************************************


----------------
TOTAL SCF ENERGY
----------------

Total Energy       :         -189.37393964 Eh           -5153.12688 eV

Components:
Nuclear Repulsion  :          104.23619278 Eh            2836.41101 eV
Electronic Energy  :         -293.61013242 Eh           -7989.53788 eV
One Electron Energy:         -463.63027290 Eh          -12616.02111 eV
Two Electron Energy:          170.02014048 Eh            4626.48323 eV

Virial components:
Potential Energy   :         -378.42821083 Eh          -10297.55513 eV
Kinetic Energy     :          189.05427119 Eh            5144.42826 eV
Virial Ratio       :            2.00169088


---------------
SCF CONVERGENCE
---------------

  Last Energy change         ...   -1.1675e-09  Tolerance :   1.0000e-08
  Last MAX-Density change    ...    5.7459e-06  Tolerance :   1.0000e-07
  Last RMS-Density change    ...    8.0345e-07  Tolerance :   5.0000e-09
  Last Orbital Gradient      ...    1.7210e-06  Tolerance :   1.0000e-05
  Last Orbital Rotation      ...    2.5966e-06  Tolerance :   1.0000e-05

             **** THE GBW FILE WAS UPDATED (acrolien.858.gbw) ****
             **** DENSITY acrolien.858.scfp WAS UPDATED ****
             **** ENERGY FILE WAS UPDATED (acrolien.858.en.tmp) ****
             **** THE GBW FILE WAS UPDATED (acrolien.858.gbw) ****
             **** DENSITY acrolien.858.scfp WAS UPDATED ****
----------------
ORBITAL ENERGIES
----------------

  NO   OCC          E(Eh)            E(eV) 
   0   2.0000     -20.361020      -554.0515 
   1   2.0000     -11.296906      -307.4044 
   2   2.0000     -11.183384      -304.3153 
   3   2.0000     -11.173078      -304.0349 
   4   2.0000      -1.397880       -38.0383 
   5   2.0000      -1.058893       -28.8140 
   6   2.0000      -0.896572       -24.3970 
   7   2.0000      -0.742185       -20.1959 
   8   2.0000      -0.680170       -18.5084 
   9   2.0000      -0.604794       -16.4573 
  10   2.0000      -0.580200       -15.7880 
  11   2.0000      -0.531148       -14.4533 
  12   2.0000      -0.495412       -13.4808 
  13   2.0000      -0.420302       -11.4370 
  14   2.0000      -0.373052       -10.1513 
  15   0.0000       0.125310         3.4099 
  16   0.0000       0.304021         8.2728 
  17   0.0000       0.484858        13.1937 
  18   0.0000       0.547439        14.8966 
  19   0.0000       0.609669        16.5899 
  20   0.0000       0.790761        21.5177 
  21   0.0000       0.799127        21.7454 
  22   0.0000       0.873575        23.7712 
  23   0.0000       0.998116        27.1601 

                    ********************************
                    * MULLIKEN POPULATION ANALYSIS *
                    ********************************

-----------------------
MULLIKEN ATOMIC CHARGES
-----------------------
   0 C :    0.134695
   1 O :   -0.348148
   2 C :   -0.176503
   3 C :   -0.189609
   4 H :    0.137269
   5 H :    0.141255
   6 H :    0.151343
   7 H :    0.149699
Sum of atomic charges:    0.0000000

--------------------------------
MULLIKEN REDUCED ORBITAL CHARGES
--------------------------------
  0 C s       :     3.033512  s :     3.033512
      pz      :     0.893660  p :     2.831793
      px      :     1.078495
      py      :     0.859638
  1 O s       :     3.836019  s :     3.836019
      pz      :     1.199880  p :     4.512130
      px      :     1.905522
      py      :     1.406727
  2 C s       :     3.101921  s :     3.101921
      pz      :     1.061305  p :     3.074582
      px      :     0.967948
      py      :     1.045330
  3 C s       :     3.186766  s :     3.186766
      pz      :     0.897416  p :     3.002843
      px      :     1.043816
      py      :     1.061612
  4 H s       :     0.862731  s :     0.862731
  5 H s       :     0.858745  s :     0.858745
  6 H s       :     0.848657  s :     0.848657
  7 H s       :     0.850301  s :     0.850301


                     *******************************
                     * LOEWDIN POPULATION ANALYSIS *
                     *******************************

----------------------
LOEWDIN ATOMIC CHARGES
----------------------
   0 C :    0.133622
   1 O :   -0.257963
   2 C :   -0.151013
   3 C :   -0.100701
   4 H :    0.064795
   5 H :    0.101503
   6 H :    0.102219
   7 H :    0.107537

-------------------------------
LOEWDIN REDUCED ORBITAL CHARGES
-------------------------------
  0 C s       :     2.946213  s :     2.946213
      pz      :     0.894730  p :     2.920165
      px      :     1.089157
      py      :     0.936277
  1 O s       :     3.706033  s :     3.706033
      pz      :     1.198656  p :     4.551930
      px      :     1.908097
      py      :     1.445177
  2 C s       :     3.000593  s :     3.000593
      pz      :     1.057392  p :     3.150420
      px      :     1.035902
      py      :     1.057127
  3 C s       :     3.061535  s :     3.061535
      pz      :     0.899718  p :     3.039166
      px      :     1.073055
      py      :     1.066393
  4 H s       :     0.935205  s :     0.935205
  5 H s       :     0.898497  s :     0.898497
  6 H s       :     0.897781  s :     0.897781
  7 H s       :     0.892463  s :     0.892463


                      *****************************
                      * MAYER POPULATION ANALYSIS *
                      *****************************

  NA   - Mulliken gross atomic population
  ZA   - Total nuclear charge
  QA   - Mulliken gross atomic charge
  VA   - Mayer's total valence
  BVA  - Mayer's bonded valence
  FA   - Mayer's free valence

  ATOM       NA         ZA         QA         VA         BVA        FA
  0 C      5.8653     6.0000     0.1347     3.8926     3.8926     0.0000
  1 O      8.3481     8.0000    -0.3481     2.0493     2.0493     0.0000
  2 C      6.1765     6.0000    -0.1765     3.9698     3.9698     0.0000
  3 C      6.1896     6.0000    -0.1896     3.9264     3.9264     0.0000
  4 H      0.8627     1.0000     0.1373     0.9812     0.9812     0.0000
  5 H      0.8587     1.0000     0.1413     0.9800     0.9800     0.0000
  6 H      0.8487     1.0000     0.1513     0.9771     0.9771     0.0000
  7 H      0.8503     1.0000     0.1497     0.9776     0.9776     0.0000

  Mayer bond orders larger than 0.100000
B(  0-C ,  1-O ) :   1.8823 B(  0-C ,  2-C ) :   1.0566 B(  0-C ,  4-H ) :   0.9348 
B(  2-C ,  3-C ) :   1.9161 B(  2-C ,  5-H ) :   0.9521 B(  3-C ,  6-H ) :   0.9570 
B(  3-C ,  7-H ) :   0.9609 

-------
TIMINGS
-------

Total SCF time: 0 days 0 hours 0 min 2 sec 

Total time                  ....       2.906 sec
Sum of individual times     ....       0.787 sec  ( 27.1%)

Fock matrix formation       ....       0.109 sec  (  3.7%)
Diagonalization             ....       0.183 sec  (  6.3%)
Density matrix formation    ....       0.000 sec  (  0.0%)
Population analysis         ....       0.230 sec  (  7.9%)
Initial guess               ....       0.002 sec  (  0.1%)
Orbital Transformation      ....       0.000 sec  (  0.0%)
Orbital Orthonormalization  ....       0.000 sec  (  0.0%)
DIIS solution               ....       0.001 sec  (  0.0%)
SOSCF solution              ....       0.262 sec  (  9.0%)

Maximum memory used throughout the entire SCF-calculation: 225.0 MB
------------------------------------------------------------------------------
                         ORCA CIS CALCULATION
------------------------------------------------------------------------------

Input orbitals are from        ... acrolien.858.gbw
CI-vector output               ... acrolien.858.cis
Tamm-Dancoff approximation     ... operative
CIS-Integral strategy          ... AO-integrals
Integral handling              ... AO integral Conventional
Reference state                ... RHF
Generation of triplets         ... off
Follow IRoot                   ... off
Number of operators            ... 1
Orbital ranges used for CIS calculation:
 Operator 0:  Orbitals   4... 14  to  15... 23
XAS localization array:
 Operator 0:  Orbitals  -1... -1

------------------------
DAVIDSON-DIAGONALIZATION
------------------------

Dimension of the eigenvalue problem            ...     99
Number of roots to be determined               ...      1
Maximum size of the expansion space            ...     10
Maximum number of iterations                   ...    100
Convergence tolerance for the residual         ...    2.500e-07
Convergence tolerance for the energies         ...    2.500e-07
Orthogonality tolerance                        ...    1.000e-14
Level Shift                                    ...    0.000e+00
Constructing the preconditioner                ... o.k.
Building the initial guess                     ... o.k.
Number of trial vectors determined             ...     10


                       ****Iteration    0****

   Memory handling for direct AO based CIS:
   Memory per vector needed      ...     1 MB
   Memory needed                 ...     0 MB
   Memory available              ...   512 MB
   Number of vectors per batch   ...   512
   Number of batches             ...     1
   Time for densities:            0.000
   SHARK[4]
   Time for Sigma-Completion:     0.001
   Size of expansion space: 3
   Lowest Energy          :     0.203693221044
   Maximum Energy change  :     0.203693221044 (vector 0)
   Maximum residual norm  :     0.015741407063

                       ****Iteration    1****
   Time for densities:            0.000
   SHARK[4]
   Time for Sigma-Completion:     0.000
   Size of expansion space: 4
   Lowest Energy          :     0.148257697896
   Maximum Energy change  :     0.055435523148 (vector 0)
   Maximum residual norm  :     0.001259549823

                       ****Iteration    2****
   Time for densities:            0.000
   SHARK[4]
   Time for Sigma-Completion:     0.000
   Size of expansion space: 5
   Lowest Energy          :     0.145145454817
   Maximum Energy change  :     0.003112243078 (vector 0)
   Maximum residual norm  :     0.000168306819

                       ****Iteration    3****
   Time for densities:            0.000
   SHARK[4]
   Time for Sigma-Completion:     0.000
   Size of expansion space: 6
   Lowest Energy          :     0.144902569678
   Maximum Energy change  :     0.000242885139 (vector 0)
   Maximum residual norm  :     0.000021124792

                       ****Iteration    4****
   Time for densities:            0.000
   SHARK[4]
   Time for Sigma-Completion:     0.000
   Size of expansion space: 7
   Lowest Energy          :     0.144866996537
   Maximum Energy change  :     0.000035573141 (vector 0)
   Maximum residual norm  :     0.000001610813

                       ****Iteration    5****
   Time for densities:            0.000
   SHARK[4]
   Time for Sigma-Completion:     0.000
   Size of expansion space: 8
   Lowest Energy          :     0.144864308702
   Maximum Energy change  :     0.000002687836 (vector 0)
   Maximum residual norm  :     0.000000066326

      *** CONVERGENCE OF RESIDUAL NORM REACHED ***

Storing the converged CI vectors               ... acrolien.858.cis1

                 *** DAVIDSON DONE ***

Total time for solving the CIS problem:     1.057sec

-----------------------------
CIS-EXCITED STATES (SINGLETS)
-----------------------------

the weight of the individual excitations are printed if larger than 1.0e-02

STATE  1:  E=   0.144864 au      3.942 eV    31794.0 cm**-1 <S**2> =   0.000000
    12a ->  15a  :     0.010791 (c=  0.10388096)
    13a ->  15a  :     0.788736 (c= -0.88810837)
    13a ->  16a  :     0.153562 (c= -0.39187029)


----------------------
CIS-EXCITATION SPECTRA
----------------------

Center of mass = (  0.5764, -0.9091,  0.0013)
Calculating the Dipole integrals                  ... done
Transforming integrals                            ... done
Calculating the Linear Momentum integrals         ... done
Transforming integrals                            ... done
Calculating angular momentum integrals            ... done
Transforming integrals                            ... done

-----------------------------------------------------------------------------
         ABSORPTION SPECTRUM VIA TRANSITION ELECTRIC DIPOLE MOMENTS
-----------------------------------------------------------------------------
State   Energy    Wavelength  fosc         T2        TX        TY        TZ  
        (cm-1)      (nm)                 (au**2)    (au)      (au)      (au) 
-----------------------------------------------------------------------------
   1   31794.0    314.5   0.000126324   0.00131  -0.03436   0.00339  -0.01075

-----------------------------------------------------------------------------
         ABSORPTION SPECTRUM VIA TRANSITION VELOCITY DIPOLE MOMENTS
-----------------------------------------------------------------------------
State   Energy    Wavelength   fosc        P2         PX        PY        PZ  
        (cm-1)      (nm)                 (au**2)     (au)      (au)      (au) 
-----------------------------------------------------------------------------
   1   31794.0    314.5   0.001185280   0.00026   0.00730   0.00335   0.01390

-------------------------------------------------------------------
                             CD SPECTRUM
-------------------------------------------------------------------
State  Energy     Wavelength     R         MX        MY        MZ   
       (cm-1)       (nm)     (1e40*cgs)   (au)      (au)      (au)  
-------------------------------------------------------------------
   1   31794.0    314.5     -0.88866  -0.02032  -0.48997   0.08567

-------------------------------------------------------------------
         CD SPECTRUM VIA TRANSITION VELOCITY DIPOLE MOMENTS        
-------------------------------------------------------------------
State  Energy     Wavelength     R         MX        MY        MZ   
       (cm-1)       (nm)     (1e40*cgs)   (au)      (au)      (au)  
-------------------------------------------------------------------
   1   31794.0    314.5     -1.94340  -0.02032  -0.48997   0.08567

Total run time:        2.452 sec

           *** ORCA-CIS/TD-DFT FINISHED WITHOUT ERROR ***

Maximum memory used throughout the entire CIS-calculation: 51.7 MB

-----------------------
CIS/TD-DFT TOTAL ENERGY
-----------------------

    E(SCF)  =   -189.373939641 Eh
    DE(CIS) =      0.144864309 Eh (Root  1)
    ----------------------------- ---------
    E(tot)  =   -189.229075332 Eh



-------------------------------------------------------------------------------
                          DFT DISPERSION CORRECTION                            
                                                                               
                              DFTD3 V3.1  Rev 1                                
                          USING Becke-Johnson damping                          
-------------------------------------------------------------------------------
Hartree-Fock is recognized
Active option DFTDOPT                   ...         4   

molecular C6(AA) [au] = 662.783590 


            DFT-D V3
 parameters
 using HF/MINIX parameters
 s6 scaling factor         :     1.0000 
 a1 scaling factor         :     0.4171 
 s8 scaling factor         :     0.8777 
 a2 scaling factor         :     2.9149 
 ad hoc parameters k1-k3   :    16.0000     1.3333    -4.0000 

 Edisp/kcal,au: -16.033413691728  -0.025550868384 
 E6   /kcal   :  -8.863931517 
 E8   /kcal   :  -7.169482175 
 % E8         :  44.715880924 

-------------------------   ----------------
Dispersion correction           -0.025550868
-------------------------   ----------------

------------------   -----------------
gCP+bas correction        -0.046583358
------------------   -----------------
----------------------------   ----------------
Total correction to HF/MINIX       -0.072134227
----------------------------   ----------------


-------------------------   --------------------
FINAL SINGLE POINT ENERGY      -189.301209558957
-------------------------   --------------------


                            ***************************************
                            *     ORCA property calculations      *
                            ***************************************

                                    ---------------------
                                    Active property flags
                                    ---------------------
   (+) Dipole Moment


------------------------------------------------------------------------------
                       ORCA ELECTRIC PROPERTIES CALCULATION
------------------------------------------------------------------------------

Dipole Moment Calculation                       ... on
Quadrupole Moment Calculation                   ... off
Polarizability Calculation                      ... off
GBWName                                         ... acrolien.858.gbw
Electron density                                ... acrolien.858.scfp
The origin for moment calculation is the CENTER OF MASS  = ( 0.576438, -0.909148  0.001282)

-------------
DIPOLE MOMENT
-------------
                                X             Y             Z
Electronic contribution:     -1.98564      -1.65835       0.01013
Nuclear contribution   :      2.46986       2.60367      -0.03405
                        -----------------------------------------
Total Dipole Moment    :      0.48421       0.94531      -0.02393
                        -----------------------------------------
Magnitude (a.u.)       :      1.06238
Magnitude (Debye)      :      2.70036



--------------------
Rotational spectrum 
--------------------
 
Rotational constants in cm-1:     0.742545     0.209926     0.165068 
Rotational constants in MHz : 22260.924783  6293.422445  4948.611346 

 Dipole components along the rotational axes: 
x,y,z [a.u.] :     0.913402    -0.541915    -0.026100 
x,y,z [Debye]:     2.321682    -1.377439    -0.066342 

 

Timings for individual modules:

Sum of individual times         ...        7.216 sec (=   0.120 min)
GTO integral calculation        ...        1.076 sec (=   0.018 min)  14.9 %
SCF iterations                  ...        3.313 sec (=   0.055 min)  45.9 %
CIS module                      ...        2.828 sec (=   0.047 min)  39.2 %
                             ****ORCA TERMINATED NORMALLY****
TOTAL RUN TIME: 0 days 0 hours 0 minutes 8 seconds 958 msec
