
                                 *****************
                                 * O   R   C   A *
                                 *****************

                                            #,                                       
                                            ###                                      
                                            ####                                     
                                            #####                                    
                                            ######                                   
                                           ########,                                 
                                     ,,################,,,,,                         
                               ,,#################################,,                 
                          ,,##########################################,,             
                       ,#########################################, ''#####,          
                    ,#############################################,,   '####,        
                  ,##################################################,,,,####,       
                ,###########''''           ''''###############################       
              ,#####''   ,,,,##########,,,,          '''####'''          '####       
            ,##' ,,,,###########################,,,                        '##       
           ' ,,###''''                  '''############,,,                           
         ,,##''                                '''############,,,,        ,,,,,,###''
      ,#''                                            '''#######################'''  
     '                                                          ''''####''''         
             ,#######,   #######,   ,#######,      ##                                
            ,#'     '#,  ##    ##  ,#'     '#,    #''#        ######   ,####,        
            ##       ##  ##   ,#'  ##            #'  '#       #        #'  '#        
            ##       ##  #######   ##           ,######,      #####,   #    #        
            '#,     ,#'  ##    ##  '#,     ,#' ,#      #,         ##   #,  ,#        
             '#######'   ##     ##  '#######'  #'      '#     #####' # '####'        



                  #######################################################
                  #                        -***-                        #
                  #          Department of theory and spectroscopy      #
                  #    Directorship and core code : Frank Neese         #
                  #        Max Planck Institute fuer Kohlenforschung    #
                  #                Kaiser Wilhelm Platz 1               #
                  #                 D-45470 Muelheim/Ruhr               #
                  #                      Germany                        #
                  #                                                     #
                  #                  All rights reserved                #
                  #                        -***-                        #
                  #######################################################


                         Program Version 5.0.3 -  RELEASE  -


 With contributions from (in alphabetic order):
   Daniel Aravena         : Magnetic Suceptibility
   Michael Atanasov       : Ab Initio Ligand Field Theory (pilot matlab implementation)
   Alexander A. Auer      : GIAO ZORA, VPT2 properties, NMR spectrum
   Ute Becker             : Parallelization
   Giovanni Bistoni       : ED, misc. LED, open-shell LED, HFLD
   Martin Brehm           : Molecular dynamics
   Dmytro Bykov           : SCF Hessian
   Vijay G. Chilkuri      : MRCI spin determinant printing, contributions to CSF-ICE
   Dipayan Datta          : RHF DLPNO-CCSD density
   Achintya Kumar Dutta   : EOM-CC, STEOM-CC
   Dmitry Ganyushin       : Spin-Orbit,Spin-Spin,Magnetic field MRCI
   Miquel Garcia          : C-PCM and meta-GGA Hessian, CC/C-PCM, Gaussian charge scheme
   Yang Guo               : DLPNO-NEVPT2, F12-NEVPT2, CIM, IAO-localization
   Andreas Hansen         : Spin unrestricted coupled pair/coupled cluster methods
   Benjamin Helmich-Paris : MC-RPA, TRAH-SCF, COSX integrals
   Lee Huntington         : MR-EOM, pCC
   Robert Izsak           : Overlap fitted RIJCOSX, COSX-SCS-MP3, EOM
   Marcus Kettner         : VPT2
   Christian Kollmar      : KDIIS, OOCD, Brueckner-CCSD(T), CCSD density, CASPT2, CASPT2-K
   Simone Kossmann        : Meta GGA functionals, TD-DFT gradient, OOMP2, MP2 Hessian
   Martin Krupicka        : Initial AUTO-CI
   Lucas Lang             : DCDCAS
   Marvin Lechner         : AUTO-CI (C++ implementation), FIC-MRCC
   Dagmar Lenk            : GEPOL surface, SMD
   Dimitrios Liakos       : Extrapolation schemes; Compound Job, initial MDCI parallelization
   Dimitrios Manganas     : Further ROCIS development; embedding schemes
   Dimitrios Pantazis     : SARC Basis sets
   Anastasios Papadopoulos: AUTO-CI, single reference methods and gradients
   Taras Petrenko         : DFT Hessian,TD-DFT gradient, ASA, ECA, R-Raman, ABS, FL, XAS/XES, NRVS
   Peter Pinski           : DLPNO-MP2, DLPNO-MP2 Gradient
   Christoph Reimann      : Effective Core Potentials
   Marius Retegan         : Local ZFS, SOC
   Christoph Riplinger    : Optimizer, TS searches, QM/MM, DLPNO-CCSD(T), (RO)-DLPNO pert. Triples
   Tobias Risthaus        : Range-separated hybrids, TD-DFT gradient, RPA, STAB
   Michael Roemelt        : Original ROCIS implementation
   Masaaki Saitow         : Open-shell DLPNO-CCSD energy and density
   Barbara Sandhoefer     : DKH picture change effects
   Avijit Sen             : IP-ROCIS
   Kantharuban Sivalingam : CASSCF convergence, NEVPT2, FIC-MRCI
   Bernardo de Souza      : ESD, SOC TD-DFT
   Georgi Stoychev        : AutoAux, RI-MP2 NMR, DLPNO-MP2 response
   Willem Van den Heuvel  : Paramagnetic NMR
   Boris Wezisla          : Elementary symmetry handling
   Frank Wennmohs         : Technical directorship


 We gratefully acknowledge several colleagues who have allowed us to
 interface, adapt or use parts of their codes:
   Stefan Grimme, W. Hujo, H. Kruse, P. Pracht,  : VdW corrections, initial TS optimization,
                  C. Bannwarth, S. Ehlert          DFT functionals, gCP, sTDA/sTD-DF
   Ed Valeev, F. Pavosevic, A. Kumar             : LibInt (2-el integral package), F12 methods
   Garnet Chan, S. Sharma, J. Yang, R. Olivares  : DMRG
   Ulf Ekstrom                                   : XCFun DFT Library
   Mihaly Kallay                                 : mrcc  (arbitrary order and MRCC methods)
   Jiri Pittner, Ondrej Demel                    : Mk-CCSD
   Frank Weinhold                                : gennbo (NPA and NBO analysis)
   Christopher J. Cramer and Donald G. Truhlar   : smd solvation model
   Lars Goerigk                                  : TD-DFT with DH, B97 family of functionals
   V. Asgeirsson, H. Jonsson                     : NEB implementation
   FAccTs GmbH                                   : IRC, NEB, NEB-TS, DLPNO-Multilevel, CI-OPT
                                                   MM, QMMM, 2- and 3-layer-ONIOM, Crystal-QMMM,
                                                   LR-CPCM, SF, NACMEs, symmetry and pop. for TD-DFT,
                                                   nearIR, NL-DFT gradient (VV10), updates on ESD,
                                                   ML-optimized integration grids
   S Lehtola, MJT Oliveira, MAL Marques          : LibXC Library
   Liviu Ungur et al                             : ANISO software


 Your calculation uses the libint2 library for the computation of 2-el integrals
 For citations please refer to: http://libint.valeyev.net

 Your ORCA version has been built with support for libXC version: 5.1.0
 For citations please refer to: https://tddft.org/programs/libxc/

 This ORCA versions uses:
   CBLAS   interface :  Fast vector & matrix operations
   LAPACKE interface :  Fast linear algebra routines
   SCALAPACK package :  Parallel linear algebra routines
   Shared memory     :  Shared parallel matrices
   BLAS/LAPACK       :  OpenBLAS 0.3.15  USE64BITINT DYNAMIC_ARCH NO_AFFINITY Haswell SINGLE_THREADED
        Core in use  :  Haswell
   Copyright (c) 2011-2014, The OpenBLAS Project


Your calculation utilizes the geometrical counterpoise correction gCP
Please cite in your paper:
H.Kruse, S. Grimme J.Chem.Phys., 136, (2012), 154101 
   

Your calculation utilizes the atom-pairwise dispersion correction
with the Becke-Johnson damping scheme (D3BJ)
Cite in your paper:
S.Grimme, S.Ehrlich, L.Goerigk, J Comput Chem, (2011), 32, 1456–1465 
S.Grimme, J.Antony, S.Ehrlich and H.Krieg, J.Chem.Phys., 132, (2010), 154104 
   

================================================================================

----- Orbital basis set information -----
Your calculation utilizes the basis: MINIX,
   a combination of small basis sets by S. Grimme (see manual for definitions).

================================================================================
                                        WARNINGS
                       Please study these warnings very carefully!
================================================================================

INFO   : Checking CIS options ...

INFO   : the flag for use of the SHARK integral package has been found!

================================================================================
                                       INPUT FILE
================================================================================
NAME = acrolien.373.com
|  1> ! HF-3c
|  2> !TightSCF
|  3> %scf
|  4>  ConvForced true
|  5>  convergence tight
|  6>  MaxIter 500
|  7> end
|  8>  
|  9> %tddft 
| 10>  nroots 1
| 11> end
| 12> 
| 13> # 	3398
| 14> * xyz 0 1
| 15> 		C   -1.156408  -0.347564   0.005128
| 16> 		O   -2.148318  -0.368699   0.843095
| 17> 		C    0.081414   0.349039   0.392589
| 18> 		C    1.166867   0.202624  -0.332920
| 19> 		H   -1.159574  -1.015877  -0.943765
| 20> 		H   -0.017893   0.956992   1.208002
| 21> 		H    1.239599  -0.350975  -1.188145
| 22> 		H    1.988922   0.582718   0.007354
| 23> *
| 24> 
| 25>                          ****END OF INPUT****
================================================================================

                       ****************************
                       * Single Point Calculation *
                       ****************************

---------------------------------
CARTESIAN COORDINATES (ANGSTROEM)
---------------------------------
  C     -1.156408   -0.347564    0.005128
  O     -2.148318   -0.368699    0.843095
  C      0.081414    0.349039    0.392589
  C      1.166867    0.202624   -0.332920
  H     -1.159574   -1.015877   -0.943765
  H     -0.017893    0.956992    1.208002
  H      1.239599   -0.350975   -1.188145
  H      1.988922    0.582718    0.007354

----------------------------
CARTESIAN COORDINATES (A.U.)
----------------------------
  NO LB      ZA    FRAG     MASS         X           Y           Z
   0 C     6.0000    0    12.011   -2.185294   -0.656801    0.009691
   1 O     8.0000    0    15.999   -4.059733   -0.696740    1.593219
   2 C     6.0000    0    12.011    0.153850    0.659588    0.741886
   3 C     6.0000    0    12.011    2.205059    0.382904   -0.629128
   4 H     1.0000    0     1.008   -2.191277   -1.919729   -1.783457
   5 H     1.0000    0     1.008   -0.033813    1.808453    2.282793
   6 H     1.0000    0     1.008    2.342503   -0.663247   -2.245269
   7 H     1.0000    0     1.008    3.758518    1.101177    0.013897

--------------------------------
INTERNAL COORDINATES (ANGSTROEM)
--------------------------------
 C      0   0   0     0.000000000000     0.00000000     0.00000000
 O      1   0   0     1.298661168055     0.00000000     0.00000000
 C      1   2   0     1.472272077374   118.68880282     0.00000000
 C      3   1   2     1.313776570241   119.77381534   168.89732376
 H      1   2   3     1.160624924329   121.07010869   169.02794492
 H      3   1   2     1.021942802229   114.18985988   345.89861187
 H      4   3   1     1.021357722470   125.56652020     1.60378254
 H      4   3   1     0.967487605573   117.64581458   187.45079177

---------------------------
INTERNAL COORDINATES (A.U.)
---------------------------
 C      0   0   0     0.000000000000     0.00000000     0.00000000
 O      1   0   0     2.454113948382     0.00000000     0.00000000
 C      1   2   0     2.782191020855   118.68880282     0.00000000
 C      3   1   2     2.482677918918   119.77381534   168.89732376
 H      1   2   3     2.193263251185   121.07010869   169.02794492
 H      3   1   2     1.931192020744   114.18985988   345.89861187
 H      4   3   1     1.930086380235   125.56652020     1.60378254
 H      4   3   1     1.828286612496   117.64581458   187.45079177

---------------------
BASIS SET INFORMATION
---------------------
There are 3 groups of distinct atoms

 Group   1 Type C   : 6s3p contracted to 2s1p pattern {33/3}
 Group   2 Type O   : 6s3p contracted to 2s1p pattern {33/3}
 Group   3 Type H   : 3s contracted to 1s pattern {3}

Atom   0C    basis set group =>   1
Atom   1O    basis set group =>   2
Atom   2C    basis set group =>   1
Atom   3C    basis set group =>   1
Atom   4H    basis set group =>   3
Atom   5H    basis set group =>   3
Atom   6H    basis set group =>   3
Atom   7H    basis set group =>   3
------------------------------------------------------------------------------
                           ORCA GTO INTEGRAL CALCULATION
------------------------------------------------------------------------------
------------------------------------------------------------------------------
                   ___                                                        
                  /   \      - P O W E R E D   B Y -                         
                 /     \                                                     
                 |  |  |   _    _      __       _____    __    __             
                 |  |  |  | |  | |    /  \     |  _  \  |  |  /  |          
                  \  \/   | |  | |   /    \    | | | |  |  | /  /          
                 / \  \   | |__| |  /  /\  \   | |_| |  |  |/  /          
                |  |  |   |  __  | /  /__\  \  |    /   |      \           
                |  |  |   | |  | | |   __   |  |    \   |  |\   \          
                \     /   | |  | | |  |  |  |  | |\  \  |  | \   \       
                 \___/    |_|  |_| |__|  |__|  |_| \__\ |__|  \__/        
                                                                              
                      - O R C A' S   B I G   F R I E N D -                    
                                      &                                       
                       - I N T E G R A L  F E E D E R -                       
                                                                              
 v1 FN, 2020, v2 2021                                                         
------------------------------------------------------------------------------


Reading SHARK input file acrolien.373.SHARKINP.tmp ... ok
----------------------
SHARK INTEGRAL PACKAGE
----------------------

Number of atoms                             ...      8
Number of basis functions                   ...     24
Number of shells                            ...     16
Maximum angular momentum                    ...      1
Integral batch strategy                     ... SHARK/LIBINT Hybrid
RI-J (if used) integral strategy            ... SPLIT-RIJ (Revised 2003 algorithm where possible)
Printlevel                                  ...      1
Contraction scheme used                     ... SEGMENTED contraction
Coulomb Range Separation                    ... NOT USED
Exchange Range Separation                   ... NOT USED
Finite Nucleus Model                        ... NOT USED
Auxiliary Coulomb fitting basis             ... NOT available
Auxiliary J/K fitting basis                 ... NOT available
Auxiliary Correlation fitting basis         ... NOT available
Auxiliary 'external' fitting basis          ... NOT available
Integral threshold                          ...     2.500000e-11
Primitive cut-off                           ...     2.500000e-12
Primitive pair pre-selection threshold      ...     2.500000e-12

Calculating pre-screening integrals         ... done (  0.0 sec) Dimension = 16
Organizing shell pair data                  ... done (  0.0 sec)
Shell pair information
Total number of shell pairs                 ...       136
Shell pairs after pre-screening             ...       133
Total number of primitive shell pairs       ...      1224
Primitive shell pairs kept                  ...       998
          la=0 lb=0:     75 shell pairs
          la=1 lb=0:     48 shell pairs
          la=1 lb=1:     10 shell pairs

Calculating one electron integrals          ... done (  0.0 sec)
Calculating Nuclear repulsion               ... done (  0.1 sec) ENN=    102.741710293400 Eh
Calculating 4-index integrals               ... 
    -> SHARK/Ints2Disk: Thresh =     2.500000e-11 TCut=    2.500000e-12 
    -> calling libint FockFlag=2 Lmax_loc=1
    ->Total LIBINT loop time =    0.000 sec
    -> L=0 0 0 0:     0.003 sec done=      2811 (=100.0%) skipped=         0 
    -> L=1 0 0 0:     0.007 sec done=      3586 (=100.0%) skipped=         0 
    -> L=1 0 1 0:     0.004 sec done=      1175 (=100.0%) skipped=         0 
    -> L=1 1 0 0:     0.003 sec done=       750 (=100.0%) skipped=         0 
    -> L=1 1 1 0:     0.004 sec done=       480 (=100.0%) skipped=         0 
    -> L=1 1 1 1:     0.001 sec done=        55 (=100.0%) skipped=         0 
    ->Total SHARK integral loop time =    0.022 sec
    -> Total Integral generation matrix time =    0.195 sec
    -> Number of small integrals   =      1043
    -> Number of medium integrals  =      2469
    -> Number of large integrals   =     40139
    -> Number of MB stored         =         0 MB


SHARK setup successfully completed in   1.0 seconds

Maximum memory used throughout the entire GTOINT-calculation: 29.5 MB
-------------------------------------------------------------------------------
                                 ORCA SCF
-------------------------------------------------------------------------------

------------
SCF SETTINGS
------------
Hamiltonian:
 Ab initio Hamiltonian  Method          .... Hartree-Fock(GTOs)


General Settings:
 Integral files         IntName         .... acrolien.373
 Hartree-Fock type      HFTyp           .... RHF
 Total Charge           Charge          ....    0
 Multiplicity           Mult            ....    1
 Number of Electrons    NEL             ....   30
 Basis Dimension        Dim             ....   24
 Nuclear Repulsion      ENuc            ....    102.7417102934 Eh

Convergence Acceleration:
 DIIS                   CNVDIIS         .... on
   Start iteration      DIISMaxIt       ....    12
   Startup error        DIISStart       ....  0.200000
   # of expansion vecs  DIISMaxEq       ....     5
   Bias factor          DIISBfac        ....   1.050
   Max. coefficient     DIISMaxC        ....  10.000
 Trust-Rad. Augm. Hess. CNVTRAH         .... auto
   Auto Start mean grad. ratio tolernc. ....  1.125000
   Auto Start start iteration           ....    20
   Auto Start num. interpolation iter.  ....    10
   Max. Number of Micro iterations      ....    16
   Max. Number of Macro iterations      .... Maxiter - #DIIS iter
   Number of Davidson start vectors     ....     2
   Converg. threshold I  (grad. norm)   ....   1.000e-05
   Converg. threshold II (energy diff.) ....   1.000e-08
   Grad. Scal. Fac. for Micro threshold ....   0.100
   Minimum threshold for Micro iter.    ....   0.010
   NR start threshold (gradient norm)   ....   0.001
   Initial trust radius                 ....   0.400
   Minimum AH scaling param. (alpha)    ....   1.000
   Maximum AH scaling param. (alpha)    .... 1000.000
   Orbital update algorithm             .... Taylor
   White noise on init. David. guess    .... on
   Maximum white noise                  ....   0.010
   Quad. conv. algorithm                .... NR
 SOSCF                  CNVSOSCF        .... on
   Start iteration      SOSCFMaxIt      ....   150
   Startup grad/error   SOSCFStart      ....  0.003300
 Level Shifting         CNVShift        .... on
   Level shift para.    LevelShift      ....    0.2500
   Turn off err/grad.   ShiftErr        ....    0.0010
 Zerner damping         CNVZerner       .... off
 Static damping         CNVDamp         .... on
   Fraction old density DampFac         ....    0.7000
   Max. Damping (<1)    DampMax         ....    0.9800
   Min. Damping (>=0)   DampMin         ....    0.0000
   Turn off err/grad.   DampErr         ....    0.1000
 Fernandez-Rico         CNVRico         .... off

SCF Procedure:
 Maximum # iterations   MaxIter         ....   500
 SCF integral mode      SCFMode         .... Conventional
 Integral Threshold     Thresh          ....  2.500e-11 Eh
 Primitive CutOff       TCut            ....  2.500e-12 Eh
 Integral Buffer length BufferLength    .... 1048576
 Integral index format  IndFormat       ....     0
 Integral value format  ValFormat       ....     0
 Integral Storage       Thresh          ....  2.500e-11 Eh

Convergence Tolerance:
 Convergence Check Mode ConvCheckMode   .... Total+1el-Energy
 Convergence forced     ConvForced      .... 1
 Energy Change          TolE            ....  1.000e-08 Eh
 1-El. energy change                    ....  1.000e-05 Eh
 Orbital Gradient       TolG            ....  1.000e-05
 Orbital Rotation angle TolX            ....  1.000e-05
 DIIS Error             TolErr          ....  5.000e-07


Diagonalization of the overlap matrix:
Smallest eigenvalue                        ... 1.691e-01
Time for diagonalization                   ...    0.000 sec
Threshold for overlap eigenvalues          ... 1.000e-08
Number of eigenvalues below threshold      ... 0
Time for construction of square roots      ...    0.002 sec
Total time needed                          ...    0.002 sec

--------------------------------
INITIAL GUESS: MINIMAL BASIS EHT
--------------------------------
The minimal basis has 24 functions
EHT matrix was diagonalized
Basis set overlap was calculated now projecting the orbitals
Using GuessMode=FMatrix for the initial guess
C*T matrix was formed
Effective Fockian was calculated
Effective Fockian was diagonalized
Initial density was built
                      ------------------
                      INITIAL GUESS DONE
                      ------------------

 InCore treatment chosen:
   Memory dedicated               ...    1024 MB
   Memory needed                  ...      0 MB
   Number of tiny    integrals    ...    1043
   Number of small   integrals    ...    2469
   Number of regular integrals    ...   40139

--------------
SCF ITERATIONS
--------------
ITER       Energy         Delta-E        Max-DP      RMS-DP      [F,P]     Damp
  0   -188.9621635361   0.000000000000 0.13506709  0.01629639  0.2719503 0.7000
  1   -189.1085312233  -0.146367687175 0.10690318  0.01290205  0.1947662 0.7000
                               ***Turning on DIIS***
  2   -189.1992710480  -0.090739824662 0.06373178  0.00803829  0.1398125 0.7000
  3   -189.3046836117  -0.105412563731 0.03107967  0.00440216  0.1003566 0.7000
  4   -189.3403255012  -0.035641889548 0.08305135  0.01075620  0.0710816 0.0000
  5   -189.3996714109  -0.059345909696 0.01078863  0.00149859  0.0088419 0.0000
                      *** Initiating the SOSCF procedure ***
                           *** Shutting down DIIS ***
                      *** Re-Reading the Fockian *** 
                      *** Removing any level shift *** 
ITER      Energy       Delta-E        Grad      Rot      Max-DP    RMS-DP
  6   -189.39771763   0.0019537859  0.002841  0.002841  0.003191  0.000454
  7   -189.39801381  -0.0002961809  0.001242  0.001973  0.002182  0.000292
  8   -189.39803085  -0.0000170463  0.000606  0.001836  0.002280  0.000254
  9   -189.39803580  -0.0000049438  0.000138  0.000321  0.000527  0.000058
 10   -189.39803616  -0.0000003641  0.000091  0.000375  0.000458  0.000056
 11   -189.39803638  -0.0000002155  0.000038  0.000174  0.000260  0.000025
 12   -189.39803642  -0.0000000399  0.000016  0.000086  0.000173  0.000013
 13   -189.39803643  -0.0000000105  0.000015  0.000037  0.000100  0.000007
 14   -189.39803643  -0.0000000028  0.000006  0.000015  0.000015  0.000002
                 **** Energy Check signals convergence ****
              ***Rediagonalizing the Fockian in SOSCF/NRSCF***

               *****************************************************
               *                     SUCCESS                       *
               *           SCF CONVERGED AFTER  15 CYCLES          *
               *****************************************************


----------------
TOTAL SCF ENERGY
----------------

Total Energy       :         -189.39803643 Eh           -5153.78258 eV

Components:
Nuclear Repulsion  :          102.74171029 Eh            2795.74407 eV
Electronic Energy  :         -292.13974672 Eh           -7949.52665 eV
One Electron Energy:         -460.28649161 Eh          -12525.03220 eV
Two Electron Energy:          168.14674488 Eh            4575.50554 eV

Virial components:
Potential Energy   :         -378.59649125 Eh          -10302.13428 eV
Kinetic Energy     :          189.19845482 Eh            5148.35169 eV
Virial Ratio       :            2.00105488


---------------
SCF CONVERGENCE
---------------

  Last Energy change         ...   -3.2003e-10  Tolerance :   1.0000e-08
  Last MAX-Density change    ...    6.3710e-06  Tolerance :   1.0000e-07
  Last RMS-Density change    ...    7.7847e-07  Tolerance :   5.0000e-09
  Last Orbital Gradient      ...    1.6210e-06  Tolerance :   1.0000e-05
  Last Orbital Rotation      ...    4.0035e-06  Tolerance :   1.0000e-05

             **** THE GBW FILE WAS UPDATED (acrolien.373.gbw) ****
             **** DENSITY acrolien.373.scfp WAS UPDATED ****
             **** ENERGY FILE WAS UPDATED (acrolien.373.en.tmp) ****
             **** THE GBW FILE WAS UPDATED (acrolien.373.gbw) ****
             **** DENSITY acrolien.373.scfp WAS UPDATED ****
----------------
ORBITAL ENERGIES
----------------

  NO   OCC          E(Eh)            E(eV) 
   0   2.0000     -20.344677      -553.6068 
   1   2.0000     -11.277855      -306.8860 
   2   2.0000     -11.212191      -305.0992 
   3   2.0000     -11.205387      -304.9141 
   4   2.0000      -1.342492       -36.5311 
   5   2.0000      -1.111186       -30.2369 
   6   2.0000      -0.901714       -24.5369 
   7   2.0000      -0.792519       -21.5655 
   8   2.0000      -0.676352       -18.4045 
   9   2.0000      -0.667681       -18.1685 
  10   2.0000      -0.577797       -15.7227 
  11   2.0000      -0.553455       -15.0603 
  12   2.0000      -0.516680       -14.0596 
  13   2.0000      -0.418695       -11.3933 
  14   2.0000      -0.397818       -10.8252 
  15   0.0000       0.113118         3.0781 
  16   0.0000       0.284695         7.7469 
  17   0.0000       0.545390        14.8408 
  18   0.0000       0.617841        16.8123 
  19   0.0000       0.689090        18.7511 
  20   0.0000       0.727441        19.7947 
  21   0.0000       0.825797        22.4711 
  22   0.0000       1.000042        27.2125 
  23   0.0000       1.028318        27.9819 

                    ********************************
                    * MULLIKEN POPULATION ANALYSIS *
                    ********************************

-----------------------
MULLIKEN ATOMIC CHARGES
-----------------------
   0 C :    0.147738
   1 O :   -0.335186
   2 C :   -0.160351
   3 C :   -0.261572
   4 H :    0.145289
   5 H :    0.164927
   6 H :    0.150096
   7 H :    0.149058
Sum of atomic charges:    0.0000000

--------------------------------
MULLIKEN REDUCED ORBITAL CHARGES
--------------------------------
  0 C s       :     3.114459  s :     3.114459
      pz      :     0.940681  p :     2.737803
      px      :     0.867316
      py      :     0.929807
  1 O s       :     3.863431  s :     3.863431
      pz      :     1.513666  p :     4.471755
      px      :     1.489901
      py      :     1.468188
  2 C s       :     3.075142  s :     3.075142
      pz      :     1.063989  p :     3.085209
      px      :     0.991916
      py      :     1.029304
  3 C s       :     3.100174  s :     3.100174
      pz      :     1.059819  p :     3.161398
      px      :     1.081183
      py      :     1.020396
  4 H s       :     0.854711  s :     0.854711
  5 H s       :     0.835073  s :     0.835073
  6 H s       :     0.849904  s :     0.849904
  7 H s       :     0.850942  s :     0.850942


                     *******************************
                     * LOEWDIN POPULATION ANALYSIS *
                     *******************************

----------------------
LOEWDIN ATOMIC CHARGES
----------------------
   0 C :    0.141497
   1 O :   -0.265251
   2 C :   -0.099684
   3 C :   -0.148782
   4 H :    0.088609
   5 H :    0.101470
   6 H :    0.093831
   7 H :    0.088311

-------------------------------
LOEWDIN REDUCED ORBITAL CHARGES
-------------------------------
  0 C s       :     3.030631  s :     3.030631
      pz      :     0.964922  p :     2.827872
      px      :     0.926973
      py      :     0.935977
  1 O s       :     3.759948  s :     3.759948
      pz      :     1.528691  p :     4.505303
      px      :     1.509286
      py      :     1.467326
  2 C s       :     2.953976  s :     2.953976
      pz      :     1.067772  p :     3.145708
      px      :     1.047834
      py      :     1.030101
  3 C s       :     2.955768  s :     2.955768
      pz      :     1.064772  p :     3.193014
      px      :     1.109083
      py      :     1.019159
  4 H s       :     0.911391  s :     0.911391
  5 H s       :     0.898530  s :     0.898530
  6 H s       :     0.906169  s :     0.906169
  7 H s       :     0.911689  s :     0.911689


                      *****************************
                      * MAYER POPULATION ANALYSIS *
                      *****************************

  NA   - Mulliken gross atomic population
  ZA   - Total nuclear charge
  QA   - Mulliken gross atomic charge
  VA   - Mayer's total valence
  BVA  - Mayer's bonded valence
  FA   - Mayer's free valence

  ATOM       NA         ZA         QA         VA         BVA        FA
  0 C      5.8523     6.0000     0.1477     3.8813     3.8813     0.0000
  1 O      8.3352     8.0000    -0.3352     2.0341     2.0341     0.0000
  2 C      6.1604     6.0000    -0.1604     3.9728     3.9728     0.0000
  3 C      6.2616     6.0000    -0.2616     3.9547     3.9547     0.0000
  4 H      0.8547     1.0000     0.1453     0.9789     0.9789     0.0000
  5 H      0.8351     1.0000     0.1649     0.9728     0.9728     0.0000
  6 H      0.8499     1.0000     0.1501     0.9775     0.9775     0.0000
  7 H      0.8509     1.0000     0.1491     0.9778     0.9778    -0.0000

  Mayer bond orders larger than 0.100000
B(  0-C ,  1-O ) :   1.8911 B(  0-C ,  2-C ) :   1.0470 B(  0-C ,  4-H ) :   0.9284 
B(  2-C ,  3-C ) :   1.9405 B(  2-C ,  5-H ) :   0.9550 B(  3-C ,  6-H ) :   0.9651 
B(  3-C ,  7-H ) :   0.9660 

-------
TIMINGS
-------

Total SCF time: 0 days 0 hours 0 min 3 sec 

Total time                  ....       3.555 sec
Sum of individual times     ....       0.358 sec  ( 10.1%)

Fock matrix formation       ....       0.117 sec  (  3.3%)
Diagonalization             ....       0.001 sec  (  0.0%)
Density matrix formation    ....       0.000 sec  (  0.0%)
Population analysis         ....       0.002 sec  (  0.1%)
Initial guess               ....       0.002 sec  (  0.1%)
Orbital Transformation      ....       0.000 sec  (  0.0%)
Orbital Orthonormalization  ....       0.000 sec  (  0.0%)
DIIS solution               ....       0.001 sec  (  0.0%)
SOSCF solution              ....       0.234 sec  (  6.6%)

Maximum memory used throughout the entire SCF-calculation: 224.9 MB
------------------------------------------------------------------------------
                         ORCA CIS CALCULATION
------------------------------------------------------------------------------

Input orbitals are from        ... acrolien.373.gbw
CI-vector output               ... acrolien.373.cis
Tamm-Dancoff approximation     ... operative
CIS-Integral strategy          ... AO-integrals
Integral handling              ... AO integral Conventional
Reference state                ... RHF
Generation of triplets         ... off
Follow IRoot                   ... off
Number of operators            ... 1
Orbital ranges used for CIS calculation:
 Operator 0:  Orbitals   4... 14  to  15... 23
XAS localization array:
 Operator 0:  Orbitals  -1... -1

------------------------
DAVIDSON-DIAGONALIZATION
------------------------

Dimension of the eigenvalue problem            ...     99
Number of roots to be determined               ...      1
Maximum size of the expansion space            ...     10
Maximum number of iterations                   ...    100
Convergence tolerance for the residual         ...    2.500e-07
Convergence tolerance for the energies         ...    2.500e-07
Orthogonality tolerance                        ...    1.000e-14
Level Shift                                    ...    0.000e+00
Constructing the preconditioner                ... o.k.
Building the initial guess                     ... o.k.
Number of trial vectors determined             ...     10


                       ****Iteration    0****

   Memory handling for direct AO based CIS:
   Memory per vector needed      ...     1 MB
   Memory needed                 ...     0 MB
   Memory available              ...   512 MB
   Number of vectors per batch   ...   512
   Number of batches             ...     1
   Time for densities:            0.001
   SHARK[4]
   Time for Sigma-Completion:     0.000
   Size of expansion space: 3
   Lowest Energy          :     0.183860705615
   Maximum Energy change  :     0.183860705615 (vector 0)
   Maximum residual norm  :     0.015624161728

                       ****Iteration    1****
   Time for densities:            0.000
   SHARK[4]
   Time for Sigma-Completion:     0.000
   Size of expansion space: 4
   Lowest Energy          :     0.130143061621
   Maximum Energy change  :     0.053717643993 (vector 0)
   Maximum residual norm  :     0.001019767213

                       ****Iteration    2****
   Time for densities:            0.000
   SHARK[4]
   Time for Sigma-Completion:     0.000
   Size of expansion space: 5
   Lowest Energy          :     0.127124377500
   Maximum Energy change  :     0.003018684121 (vector 0)
   Maximum residual norm  :     0.000053029862

                       ****Iteration    3****
   Time for densities:            0.000
   SHARK[4]
   Time for Sigma-Completion:     0.000
   Size of expansion space: 6
   Lowest Energy          :     0.127035147447
   Maximum Energy change  :     0.000089230054 (vector 0)
   Maximum residual norm  :     0.000002730075

                       ****Iteration    4****
   Time for densities:            0.000
   SHARK[4]
   Time for Sigma-Completion:     0.000
   Size of expansion space: 7
   Lowest Energy          :     0.127030548887
   Maximum Energy change  :     0.000004598559 (vector 0)
   Maximum residual norm  :     0.000000229825

      *** CONVERGENCE OF RESIDUAL NORM REACHED ***

Storing the converged CI vectors               ... acrolien.373.cis1

                 *** DAVIDSON DONE ***

Total time for solving the CIS problem:     0.941sec

-----------------------------
CIS-EXCITED STATES (SINGLETS)
-----------------------------

the weight of the individual excitations are printed if larger than 1.0e-02

STATE  1:  E=   0.127031 au      3.457 eV    27880.0 cm**-1 <S**2> =   0.000000
    10a ->  15a  :     0.018960 (c=  0.13769528)
    13a ->  15a  :     0.811832 (c=  0.90101721)
    13a ->  16a  :     0.141622 (c=  0.37632649)


----------------------
CIS-EXCITATION SPECTRA
----------------------

Center of mass = ( -1.0516, -0.1103,  0.4497)
Calculating the Dipole integrals                  ... done
Transforming integrals                            ... done
Calculating the Linear Momentum integrals         ... done
Transforming integrals                            ... done
Calculating angular momentum integrals            ... done
Transforming integrals                            ... done

-----------------------------------------------------------------------------
         ABSORPTION SPECTRUM VIA TRANSITION ELECTRIC DIPOLE MOMENTS
-----------------------------------------------------------------------------
State   Energy    Wavelength  fosc         T2        TX        TY        TZ  
        (cm-1)      (nm)                 (au**2)    (au)      (au)      (au) 
-----------------------------------------------------------------------------
   1   27880.0    358.7   0.000030028   0.00035  -0.00502  -0.01201  -0.01361

-----------------------------------------------------------------------------
         ABSORPTION SPECTRUM VIA TRANSITION VELOCITY DIPOLE MOMENTS
-----------------------------------------------------------------------------
State   Energy    Wavelength   fosc        P2         PX        PY        PZ  
        (cm-1)      (nm)                 (au**2)     (au)      (au)      (au) 
-----------------------------------------------------------------------------
   1   27880.0    358.7   0.000679593   0.00013  -0.00117   0.00973  -0.00579

-------------------------------------------------------------------
                             CD SPECTRUM
-------------------------------------------------------------------
State  Energy     Wavelength     R         MX        MY        MZ   
       (cm-1)       (nm)     (1e40*cgs)   (au)      (au)      (au)  
-------------------------------------------------------------------
   1   27880.0    358.7     -0.84581  -0.40363  -0.02050   0.29871

-------------------------------------------------------------------
         CD SPECTRUM VIA TRANSITION VELOCITY DIPOLE MOMENTS        
-------------------------------------------------------------------
State  Energy     Wavelength     R         MX        MY        MZ   
       (cm-1)       (nm)     (1e40*cgs)   (au)      (au)      (au)  
-------------------------------------------------------------------
   1   27880.0    358.7     -5.40530  -0.40363  -0.02050   0.29871

Total run time:        1.656 sec

           *** ORCA-CIS/TD-DFT FINISHED WITHOUT ERROR ***

Maximum memory used throughout the entire CIS-calculation: 51.7 MB

-----------------------
CIS/TD-DFT TOTAL ENERGY
-----------------------

    E(SCF)  =   -189.398036429 Eh
    DE(CIS) =      0.127030549 Eh (Root  1)
    ----------------------------- ---------
    E(tot)  =   -189.271005880 Eh



-------------------------------------------------------------------------------
                          DFT DISPERSION CORRECTION                            
                                                                               
                              DFTD3 V3.1  Rev 1                                
                          USING Becke-Johnson damping                          
-------------------------------------------------------------------------------
Hartree-Fock is recognized
Active option DFTDOPT                   ...         4   

molecular C6(AA) [au] = 660.440282 


            DFT-D V3
 parameters
 using HF/MINIX parameters
 s6 scaling factor         :     1.0000 
 a1 scaling factor         :     0.4171 
 s8 scaling factor         :     0.8777 
 a2 scaling factor         :     2.9149 
 ad hoc parameters k1-k3   :    16.0000     1.3333    -4.0000 

 Edisp/kcal,au: -16.205570460864  -0.025825217629 
 E6   /kcal   :  -8.982207483 
 E8   /kcal   :  -7.223362978 
 % E8         :  44.573333565 

-------------------------   ----------------
Dispersion correction           -0.025825218
-------------------------   ----------------

------------------   -----------------
gCP+bas correction        -0.036375875
------------------   -----------------
----------------------------   ----------------
Total correction to HF/MINIX       -0.062201093
----------------------------   ----------------


-------------------------   --------------------
FINAL SINGLE POINT ENERGY      -189.333206972923
-------------------------   --------------------


                            ***************************************
                            *     ORCA property calculations      *
                            ***************************************

                                    ---------------------
                                    Active property flags
                                    ---------------------
   (+) Dipole Moment


------------------------------------------------------------------------------
                       ORCA ELECTRIC PROPERTIES CALCULATION
------------------------------------------------------------------------------

Dipole Moment Calculation                       ... on
Quadrupole Moment Calculation                   ... off
Polarizability Calculation                      ... off
GBWName                                         ... acrolien.373.gbw
Electron density                                ... acrolien.373.scfp
The origin for moment calculation is the CENTER OF MASS  = (-1.051645, -0.110326  0.449749)

-------------
DIPOLE MOMENT
-------------
                                X             Y             Z
Electronic contribution:     -3.06707      -0.36414       1.10177
Nuclear contribution   :      3.98911       0.37667      -1.74407
                        -----------------------------------------
Total Dipole Moment    :      0.92205       0.01253      -0.64230
                        -----------------------------------------
Magnitude (a.u.)       :      1.12378
Magnitude (Debye)      :      2.85642



--------------------
Rotational spectrum 
--------------------
 
Rotational constants in cm-1:     1.516982     0.156135     0.142100 
Rotational constants in MHz : 45477.982706  4680.807943  4260.058355 

 Dipole components along the rotational axes: 
x,y,z [a.u.] :    -1.044522    -0.411895    -0.046882 
x,y,z [Debye]:    -2.654963    -1.046955    -0.119165 

 

Timings for individual modules:

Sum of individual times         ...        6.879 sec (=   0.115 min)
GTO integral calculation        ...        1.367 sec (=   0.023 min)  19.9 %
SCF iterations                  ...        3.842 sec (=   0.064 min)  55.9 %
CIS module                      ...        1.670 sec (=   0.028 min)  24.3 %
                             ****ORCA TERMINATED NORMALLY****
TOTAL RUN TIME: 0 days 0 hours 0 minutes 10 seconds 624 msec
