
                                 *****************
                                 * O   R   C   A *
                                 *****************

                                            #,                                       
                                            ###                                      
                                            ####                                     
                                            #####                                    
                                            ######                                   
                                           ########,                                 
                                     ,,################,,,,,                         
                               ,,#################################,,                 
                          ,,##########################################,,             
                       ,#########################################, ''#####,          
                    ,#############################################,,   '####,        
                  ,##################################################,,,,####,       
                ,###########''''           ''''###############################       
              ,#####''   ,,,,##########,,,,          '''####'''          '####       
            ,##' ,,,,###########################,,,                        '##       
           ' ,,###''''                  '''############,,,                           
         ,,##''                                '''############,,,,        ,,,,,,###''
      ,#''                                            '''#######################'''  
     '                                                          ''''####''''         
             ,#######,   #######,   ,#######,      ##                                
            ,#'     '#,  ##    ##  ,#'     '#,    #''#        ######   ,####,        
            ##       ##  ##   ,#'  ##            #'  '#       #        #'  '#        
            ##       ##  #######   ##           ,######,      #####,   #    #        
            '#,     ,#'  ##    ##  '#,     ,#' ,#      #,         ##   #,  ,#        
             '#######'   ##     ##  '#######'  #'      '#     #####' # '####'        



                  #######################################################
                  #                        -***-                        #
                  #          Department of theory and spectroscopy      #
                  #    Directorship and core code : Frank Neese         #
                  #        Max Planck Institute fuer Kohlenforschung    #
                  #                Kaiser Wilhelm Platz 1               #
                  #                 D-45470 Muelheim/Ruhr               #
                  #                      Germany                        #
                  #                                                     #
                  #                  All rights reserved                #
                  #                        -***-                        #
                  #######################################################


                         Program Version 5.0.3 -  RELEASE  -


 With contributions from (in alphabetic order):
   Daniel Aravena         : Magnetic Suceptibility
   Michael Atanasov       : Ab Initio Ligand Field Theory (pilot matlab implementation)
   Alexander A. Auer      : GIAO ZORA, VPT2 properties, NMR spectrum
   Ute Becker             : Parallelization
   Giovanni Bistoni       : ED, misc. LED, open-shell LED, HFLD
   Martin Brehm           : Molecular dynamics
   Dmytro Bykov           : SCF Hessian
   Vijay G. Chilkuri      : MRCI spin determinant printing, contributions to CSF-ICE
   Dipayan Datta          : RHF DLPNO-CCSD density
   Achintya Kumar Dutta   : EOM-CC, STEOM-CC
   Dmitry Ganyushin       : Spin-Orbit,Spin-Spin,Magnetic field MRCI
   Miquel Garcia          : C-PCM and meta-GGA Hessian, CC/C-PCM, Gaussian charge scheme
   Yang Guo               : DLPNO-NEVPT2, F12-NEVPT2, CIM, IAO-localization
   Andreas Hansen         : Spin unrestricted coupled pair/coupled cluster methods
   Benjamin Helmich-Paris : MC-RPA, TRAH-SCF, COSX integrals
   Lee Huntington         : MR-EOM, pCC
   Robert Izsak           : Overlap fitted RIJCOSX, COSX-SCS-MP3, EOM
   Marcus Kettner         : VPT2
   Christian Kollmar      : KDIIS, OOCD, Brueckner-CCSD(T), CCSD density, CASPT2, CASPT2-K
   Simone Kossmann        : Meta GGA functionals, TD-DFT gradient, OOMP2, MP2 Hessian
   Martin Krupicka        : Initial AUTO-CI
   Lucas Lang             : DCDCAS
   Marvin Lechner         : AUTO-CI (C++ implementation), FIC-MRCC
   Dagmar Lenk            : GEPOL surface, SMD
   Dimitrios Liakos       : Extrapolation schemes; Compound Job, initial MDCI parallelization
   Dimitrios Manganas     : Further ROCIS development; embedding schemes
   Dimitrios Pantazis     : SARC Basis sets
   Anastasios Papadopoulos: AUTO-CI, single reference methods and gradients
   Taras Petrenko         : DFT Hessian,TD-DFT gradient, ASA, ECA, R-Raman, ABS, FL, XAS/XES, NRVS
   Peter Pinski           : DLPNO-MP2, DLPNO-MP2 Gradient
   Christoph Reimann      : Effective Core Potentials
   Marius Retegan         : Local ZFS, SOC
   Christoph Riplinger    : Optimizer, TS searches, QM/MM, DLPNO-CCSD(T), (RO)-DLPNO pert. Triples
   Tobias Risthaus        : Range-separated hybrids, TD-DFT gradient, RPA, STAB
   Michael Roemelt        : Original ROCIS implementation
   Masaaki Saitow         : Open-shell DLPNO-CCSD energy and density
   Barbara Sandhoefer     : DKH picture change effects
   Avijit Sen             : IP-ROCIS
   Kantharuban Sivalingam : CASSCF convergence, NEVPT2, FIC-MRCI
   Bernardo de Souza      : ESD, SOC TD-DFT
   Georgi Stoychev        : AutoAux, RI-MP2 NMR, DLPNO-MP2 response
   Willem Van den Heuvel  : Paramagnetic NMR
   Boris Wezisla          : Elementary symmetry handling
   Frank Wennmohs         : Technical directorship


 We gratefully acknowledge several colleagues who have allowed us to
 interface, adapt or use parts of their codes:
   Stefan Grimme, W. Hujo, H. Kruse, P. Pracht,  : VdW corrections, initial TS optimization,
                  C. Bannwarth, S. Ehlert          DFT functionals, gCP, sTDA/sTD-DF
   Ed Valeev, F. Pavosevic, A. Kumar             : LibInt (2-el integral package), F12 methods
   Garnet Chan, S. Sharma, J. Yang, R. Olivares  : DMRG
   Ulf Ekstrom                                   : XCFun DFT Library
   Mihaly Kallay                                 : mrcc  (arbitrary order and MRCC methods)
   Jiri Pittner, Ondrej Demel                    : Mk-CCSD
   Frank Weinhold                                : gennbo (NPA and NBO analysis)
   Christopher J. Cramer and Donald G. Truhlar   : smd solvation model
   Lars Goerigk                                  : TD-DFT with DH, B97 family of functionals
   V. Asgeirsson, H. Jonsson                     : NEB implementation
   FAccTs GmbH                                   : IRC, NEB, NEB-TS, DLPNO-Multilevel, CI-OPT
                                                   MM, QMMM, 2- and 3-layer-ONIOM, Crystal-QMMM,
                                                   LR-CPCM, SF, NACMEs, symmetry and pop. for TD-DFT,
                                                   nearIR, NL-DFT gradient (VV10), updates on ESD,
                                                   ML-optimized integration grids
   S Lehtola, MJT Oliveira, MAL Marques          : LibXC Library
   Liviu Ungur et al                             : ANISO software


 Your calculation uses the libint2 library for the computation of 2-el integrals
 For citations please refer to: http://libint.valeyev.net

 Your ORCA version has been built with support for libXC version: 5.1.0
 For citations please refer to: https://tddft.org/programs/libxc/

 This ORCA versions uses:
   CBLAS   interface :  Fast vector & matrix operations
   LAPACKE interface :  Fast linear algebra routines
   SCALAPACK package :  Parallel linear algebra routines
   Shared memory     :  Shared parallel matrices
   BLAS/LAPACK       :  OpenBLAS 0.3.15  USE64BITINT DYNAMIC_ARCH NO_AFFINITY Haswell SINGLE_THREADED
        Core in use  :  Haswell
   Copyright (c) 2011-2014, The OpenBLAS Project


Your calculation utilizes the geometrical counterpoise correction gCP
Please cite in your paper:
H.Kruse, S. Grimme J.Chem.Phys., 136, (2012), 154101 
   

Your calculation utilizes the atom-pairwise dispersion correction
with the Becke-Johnson damping scheme (D3BJ)
Cite in your paper:
S.Grimme, S.Ehrlich, L.Goerigk, J Comput Chem, (2011), 32, 1456–1465 
S.Grimme, J.Antony, S.Ehrlich and H.Krieg, J.Chem.Phys., 132, (2010), 154104 
   

================================================================================

----- Orbital basis set information -----
Your calculation utilizes the basis: MINIX,
   a combination of small basis sets by S. Grimme (see manual for definitions).

================================================================================
                                        WARNINGS
                       Please study these warnings very carefully!
================================================================================

INFO   : Checking CIS options ...

INFO   : the flag for use of the SHARK integral package has been found!

================================================================================
                                       INPUT FILE
================================================================================
NAME = acrolien.1115.com
|  1> ! HF-3c
|  2> !TightSCF
|  3> %scf
|  4>  ConvForced true
|  5>  convergence tight
|  6>  MaxIter 500
|  7> end
|  8>  
|  9> %tddft 
| 10>  nroots 1
| 11> end
| 12> 
| 13> # 	32592
| 14> * xyz 0 1
| 15> 		C   -0.540966  -0.442566   0.039589
| 16> 		O   -0.591717  -1.632258  -0.027947
| 17> 		C    0.664652   0.425961  -0.003969
| 18> 		C    1.789831  -0.113827   0.008726
| 19> 		H   -1.612893   0.030870   0.065477
| 20> 		H    0.637348   1.439265  -0.217938
| 21> 		H    1.819957  -1.245111   0.119100
| 22> 		H    2.740627   0.455442  -0.067703
| 23> *
| 24> 
| 25>                          ****END OF INPUT****
================================================================================

                       ****************************
                       * Single Point Calculation *
                       ****************************

---------------------------------
CARTESIAN COORDINATES (ANGSTROEM)
---------------------------------
  C     -0.540966   -0.442566    0.039589
  O     -0.591717   -1.632258   -0.027947
  C      0.664652    0.425961   -0.003969
  C      1.789831   -0.113827    0.008726
  H     -1.612893    0.030870    0.065477
  H      0.637348    1.439265   -0.217938
  H      1.819957   -1.245111    0.119100
  H      2.740627    0.455442   -0.067703

----------------------------
CARTESIAN COORDINATES (A.U.)
----------------------------
  NO LB      ZA    FRAG     MASS         X           Y           Z
   0 C     6.0000    0    12.011   -1.022278   -0.836329    0.074812
   1 O     8.0000    0    15.999   -1.118183   -3.084521   -0.052812
   2 C     6.0000    0    12.011    1.256010    0.804950   -0.007500
   3 C     6.0000    0    12.011    3.382290   -0.215102    0.016490
   4 H     1.0000    0     1.008   -3.047926    0.058336    0.123734
   5 H     1.0000    0     1.008    1.204413    2.719817   -0.411843
   6 H     1.0000    0     1.008    3.439220   -2.352919    0.225066
   7 H     1.0000    0     1.008    5.179034    0.860661   -0.127940

--------------------------------
INTERNAL COORDINATES (ANGSTROEM)
--------------------------------
 C      0   0   0     0.000000000000     0.00000000     0.00000000
 O      1   0   0     1.192687649874     0.00000000     0.00000000
 C      1   2   0     1.486523195587   127.99927658     0.00000000
 C      3   1   2     1.248022447719   118.56787707   352.98209878
 H      1   2   3     1.172108923253   111.42231716   175.40869695
 H      3   1   2     1.036008319365   123.78927660   161.32261637
 H      4   3   1     1.137054741166   117.07740774   356.27018198
 H      4   3   1     1.110820246493   123.32150346   177.12166724

---------------------------
INTERNAL COORDINATES (A.U.)
---------------------------
 C      0   0   0     0.000000000000     0.00000000     0.00000000
 O      1   0   0     2.253853021571     0.00000000     0.00000000
 C      1   2   0     2.809121731380   127.99927658     0.00000000
 C      3   1   2     2.358420635175   118.56787707   352.98209878
 H      1   2   3     2.214964864073   111.42231716   175.40869695
 H      3   1   2     1.957771996063   123.78927660   161.32261637
 H      4   3   1     2.148722060080   117.07740774   356.27018198
 H      4   3   1     2.099146049886   123.32150346   177.12166724

---------------------
BASIS SET INFORMATION
---------------------
There are 3 groups of distinct atoms

 Group   1 Type C   : 6s3p contracted to 2s1p pattern {33/3}
 Group   2 Type O   : 6s3p contracted to 2s1p pattern {33/3}
 Group   3 Type H   : 3s contracted to 1s pattern {3}

Atom   0C    basis set group =>   1
Atom   1O    basis set group =>   2
Atom   2C    basis set group =>   1
Atom   3C    basis set group =>   1
Atom   4H    basis set group =>   3
Atom   5H    basis set group =>   3
Atom   6H    basis set group =>   3
Atom   7H    basis set group =>   3
------------------------------------------------------------------------------
                           ORCA GTO INTEGRAL CALCULATION
------------------------------------------------------------------------------
------------------------------------------------------------------------------
                   ___                                                        
                  /   \      - P O W E R E D   B Y -                         
                 /     \                                                     
                 |  |  |   _    _      __       _____    __    __             
                 |  |  |  | |  | |    /  \     |  _  \  |  |  /  |          
                  \  \/   | |  | |   /    \    | | | |  |  | /  /          
                 / \  \   | |__| |  /  /\  \   | |_| |  |  |/  /          
                |  |  |   |  __  | /  /__\  \  |    /   |      \           
                |  |  |   | |  | | |   __   |  |    \   |  |\   \          
                \     /   | |  | | |  |  |  |  | |\  \  |  | \   \       
                 \___/    |_|  |_| |__|  |__|  |_| \__\ |__|  \__/        
                                                                              
                      - O R C A' S   B I G   F R I E N D -                    
                                      &                                       
                       - I N T E G R A L  F E E D E R -                       
                                                                              
 v1 FN, 2020, v2 2021                                                         
------------------------------------------------------------------------------


Reading SHARK input file acrolien.1115.SHARKINP.tmp ... ok
----------------------
SHARK INTEGRAL PACKAGE
----------------------

Number of atoms                             ...      8
Number of basis functions                   ...     24
Number of shells                            ...     16
Maximum angular momentum                    ...      1
Integral batch strategy                     ... SHARK/LIBINT Hybrid
RI-J (if used) integral strategy            ... SPLIT-RIJ (Revised 2003 algorithm where possible)
Printlevel                                  ...      1
Contraction scheme used                     ... SEGMENTED contraction
Coulomb Range Separation                    ... NOT USED
Exchange Range Separation                   ... NOT USED
Finite Nucleus Model                        ... NOT USED
Auxiliary Coulomb fitting basis             ... NOT available
Auxiliary J/K fitting basis                 ... NOT available
Auxiliary Correlation fitting basis         ... NOT available
Auxiliary 'external' fitting basis          ... NOT available
Integral threshold                          ...     2.500000e-11
Primitive cut-off                           ...     2.500000e-12
Primitive pair pre-selection threshold      ...     2.500000e-12

Calculating pre-screening integrals         ... done (  0.0 sec) Dimension = 16
Organizing shell pair data                  ... done (  0.0 sec)
Shell pair information
Total number of shell pairs                 ...       136
Shell pairs after pre-screening             ...       133
Total number of primitive shell pairs       ...      1224
Primitive shell pairs kept                  ...      1004
          la=0 lb=0:     75 shell pairs
          la=1 lb=0:     48 shell pairs
          la=1 lb=1:     10 shell pairs

Calculating one electron integrals          ... done (  0.0 sec)
Calculating Nuclear repulsion               ... done (  0.1 sec) ENN=    106.462492993852 Eh
Calculating 4-index integrals               ... 
    -> SHARK/Ints2Disk: Thresh =     2.500000e-11 TCut=    2.500000e-12 
    -> calling libint FockFlag=2 Lmax_loc=1
    ->Total LIBINT loop time =    0.000 sec
    -> L=0 0 0 0:     0.003 sec done=      2829 (=100.0%) skipped=         0 
    -> L=1 0 0 0:     0.007 sec done=      3596 (=100.0%) skipped=         0 
    -> L=1 0 1 0:     0.004 sec done=      1176 (=100.0%) skipped=         0 
    -> L=1 1 0 0:     0.003 sec done=       750 (=100.0%) skipped=         0 
    -> L=1 1 1 0:     0.004 sec done=       480 (=100.0%) skipped=         0 
    -> L=1 1 1 1:     0.001 sec done=        55 (=100.0%) skipped=         0 
    ->Total SHARK integral loop time =    0.022 sec
    -> Total Integral generation matrix time =    0.774 sec
    -> Number of small integrals   =       517
    -> Number of medium integrals  =      2296
    -> Number of large integrals   =     40961
    -> Number of MB stored         =         0 MB


SHARK setup successfully completed in   2.4 seconds

Maximum memory used throughout the entire GTOINT-calculation: 29.5 MB
-------------------------------------------------------------------------------
                                 ORCA SCF
-------------------------------------------------------------------------------

------------
SCF SETTINGS
------------
Hamiltonian:
 Ab initio Hamiltonian  Method          .... Hartree-Fock(GTOs)


General Settings:
 Integral files         IntName         .... acrolien.1115
 Hartree-Fock type      HFTyp           .... RHF
 Total Charge           Charge          ....    0
 Multiplicity           Mult            ....    1
 Number of Electrons    NEL             ....   30
 Basis Dimension        Dim             ....   24
 Nuclear Repulsion      ENuc            ....    106.4624929939 Eh

Convergence Acceleration:
 DIIS                   CNVDIIS         .... on
   Start iteration      DIISMaxIt       ....    12
   Startup error        DIISStart       ....  0.200000
   # of expansion vecs  DIISMaxEq       ....     5
   Bias factor          DIISBfac        ....   1.050
   Max. coefficient     DIISMaxC        ....  10.000
 Trust-Rad. Augm. Hess. CNVTRAH         .... auto
   Auto Start mean grad. ratio tolernc. ....  1.125000
   Auto Start start iteration           ....    20
   Auto Start num. interpolation iter.  ....    10
   Max. Number of Micro iterations      ....    16
   Max. Number of Macro iterations      .... Maxiter - #DIIS iter
   Number of Davidson start vectors     ....     2
   Converg. threshold I  (grad. norm)   ....   1.000e-05
   Converg. threshold II (energy diff.) ....   1.000e-08
   Grad. Scal. Fac. for Micro threshold ....   0.100
   Minimum threshold for Micro iter.    ....   0.010
   NR start threshold (gradient norm)   ....   0.001
   Initial trust radius                 ....   0.400
   Minimum AH scaling param. (alpha)    ....   1.000
   Maximum AH scaling param. (alpha)    .... 1000.000
   Orbital update algorithm             .... Taylor
   White noise on init. David. guess    .... on
   Maximum white noise                  ....   0.010
   Quad. conv. algorithm                .... NR
 SOSCF                  CNVSOSCF        .... on
   Start iteration      SOSCFMaxIt      ....   150
   Startup grad/error   SOSCFStart      ....  0.003300
 Level Shifting         CNVShift        .... on
   Level shift para.    LevelShift      ....    0.2500
   Turn off err/grad.   ShiftErr        ....    0.0010
 Zerner damping         CNVZerner       .... off
 Static damping         CNVDamp         .... on
   Fraction old density DampFac         ....    0.7000
   Max. Damping (<1)    DampMax         ....    0.9800
   Min. Damping (>=0)   DampMin         ....    0.0000
   Turn off err/grad.   DampErr         ....    0.1000
 Fernandez-Rico         CNVRico         .... off

SCF Procedure:
 Maximum # iterations   MaxIter         ....   500
 SCF integral mode      SCFMode         .... Conventional
 Integral Threshold     Thresh          ....  2.500e-11 Eh
 Primitive CutOff       TCut            ....  2.500e-12 Eh
 Integral Buffer length BufferLength    .... 1048576
 Integral index format  IndFormat       ....     0
 Integral value format  ValFormat       ....     0
 Integral Storage       Thresh          ....  2.500e-11 Eh

Convergence Tolerance:
 Convergence Check Mode ConvCheckMode   .... Total+1el-Energy
 Convergence forced     ConvForced      .... 1
 Energy Change          TolE            ....  1.000e-08 Eh
 1-El. energy change                    ....  1.000e-05 Eh
 Orbital Gradient       TolG            ....  1.000e-05
 Orbital Rotation angle TolX            ....  1.000e-05
 DIIS Error             TolErr          ....  5.000e-07


Diagonalization of the overlap matrix:
Smallest eigenvalue                        ... 1.489e-01
Time for diagonalization                   ...    0.000 sec
Threshold for overlap eigenvalues          ... 1.000e-08
Number of eigenvalues below threshold      ... 0
Time for construction of square roots      ...    0.149 sec
Total time needed                          ...    0.149 sec

--------------------------------
INITIAL GUESS: MINIMAL BASIS EHT
--------------------------------
The minimal basis has 24 functions
EHT matrix was diagonalized
Basis set overlap was calculated now projecting the orbitals
Using GuessMode=FMatrix for the initial guess
C*T matrix was formed
Effective Fockian was calculated
Effective Fockian was diagonalized
Initial density was built
                      ------------------
                      INITIAL GUESS DONE
                      ------------------

 InCore treatment chosen:
   Memory dedicated               ...    1024 MB
   Memory needed                  ...      0 MB
   Number of tiny    integrals    ...     517
   Number of small   integrals    ...    2296
   Number of regular integrals    ...   40961

--------------
SCF ITERATIONS
--------------
ITER       Energy         Delta-E        Max-DP      RMS-DP      [F,P]     Damp
  0   -188.9217659248   0.000000000000 0.14620424  0.01509893  0.3380826 0.7000
  1   -189.0688611911  -0.147095266306 0.12151937  0.01201917  0.2262425 0.7000
                               ***Turning on DIIS***
  2   -189.1664861077  -0.097624916638 0.07589105  0.00788439  0.1622375 0.7000
  3   -189.1992591041  -0.032772996305 0.03534033  0.00482623  0.1163002 0.7000
  4   -189.2397234366  -0.040464332534 0.09435860  0.01186442  0.0822326 0.0000
  5   -189.3890577554  -0.149334318807 0.01325326  0.00125354  0.0097663 0.0000
                      *** Initiating the SOSCF procedure ***
                           *** Shutting down DIIS ***
                      *** Re-Reading the Fockian *** 
                      *** Removing any level shift *** 
ITER      Energy       Delta-E        Grad      Rot      Max-DP    RMS-DP
  6   -189.39027562  -0.0012178662  0.001488  0.001488  0.002911  0.000366
  7   -189.39042503  -0.0001494085  0.000672  0.000746  0.001926  0.000195
  8   -189.39043057  -0.0000055430  0.000290  0.000682  0.001070  0.000129
  9   -189.39043159  -0.0000010194  0.000090  0.000093  0.000238  0.000027
 10   -189.39043167  -0.0000000822  0.000040  0.000075  0.000138  0.000013
 11   -189.39043170  -0.0000000240  0.000021  0.000097  0.000177  0.000013
                 **** Energy Check signals convergence ****
              ***Rediagonalizing the Fockian in SOSCF/NRSCF***

               *****************************************************
               *                     SUCCESS                       *
               *           SCF CONVERGED AFTER  12 CYCLES          *
               *****************************************************


----------------
TOTAL SCF ENERGY
----------------

Total Energy       :         -189.39043171 Eh           -5153.57565 eV

Components:
Nuclear Repulsion  :          106.46249299 Eh            2896.99171 eV
Electronic Energy  :         -295.85292470 Eh           -8050.56736 eV
One Electron Energy:         -467.61734528 Eh          -12724.51487 eV
Two Electron Energy:          171.76442058 Eh            4673.94750 eV

Virial components:
Potential Energy   :         -378.68651533 Eh          -10304.58396 eV
Kinetic Energy     :          189.29608362 Eh            5151.00831 eV
Virial Ratio       :            2.00049842


---------------
SCF CONVERGENCE
---------------

  Last Energy change         ...   -9.1001e-09  Tolerance :   1.0000e-08
  Last MAX-Density change    ...    4.3186e-05  Tolerance :   1.0000e-07
  Last RMS-Density change    ...    3.0369e-06  Tolerance :   5.0000e-09
  Last Orbital Gradient      ...    6.4973e-06  Tolerance :   1.0000e-05
  Last Orbital Rotation      ...    2.4336e-05  Tolerance :   1.0000e-05

             **** THE GBW FILE WAS UPDATED (acrolien.1115.gbw) ****
             **** DENSITY acrolien.1115.scfp WAS UPDATED ****
             **** ENERGY FILE WAS UPDATED (acrolien.1115.en.tmp) ****
             **** THE GBW FILE WAS UPDATED (acrolien.1115.gbw) ****
             **** DENSITY acrolien.1115.scfp WAS UPDATED ****
----------------
ORBITAL ENERGIES
----------------

  NO   OCC          E(Eh)            E(eV) 
   0   2.0000     -20.365850      -554.1829 
   1   2.0000     -11.297709      -307.4263 
   2   2.0000     -11.196073      -304.6606 
   3   2.0000     -11.195214      -304.6373 
   4   2.0000      -1.415180       -38.5090 
   5   2.0000      -1.114552       -30.3285 
   6   2.0000      -0.873191       -23.7607 
   7   2.0000      -0.744769       -20.2662 
   8   2.0000      -0.720489       -19.6055 
   9   2.0000      -0.619243       -16.8505 
  10   2.0000      -0.597060       -16.2468 
  11   2.0000      -0.552023       -15.0213 
  12   2.0000      -0.524358       -14.2685 
  13   2.0000      -0.422829       -11.5058 
  14   2.0000      -0.405712       -11.0400 
  15   0.0000       0.151423         4.1204 
  16   0.0000       0.324979         8.8431 
  17   0.0000       0.514157        13.9909 
  18   0.0000       0.593690        16.1551 
  19   0.0000       0.639466        17.4008 
  20   0.0000       0.671524        18.2731 
  21   0.0000       0.909805        24.7570 
  22   0.0000       0.965167        26.2635 
  23   0.0000       1.112779        30.2803 

                    ********************************
                    * MULLIKEN POPULATION ANALYSIS *
                    ********************************

-----------------------
MULLIKEN ATOMIC CHARGES
-----------------------
   0 C :    0.186401
   1 O :   -0.363599
   2 C :   -0.211773
   3 C :   -0.208037
   4 H :    0.131732
   5 H :    0.152678
   6 H :    0.162579
   7 H :    0.150020
Sum of atomic charges:    0.0000000

--------------------------------
MULLIKEN REDUCED ORBITAL CHARGES
--------------------------------
  0 C s       :     3.064912  s :     3.064912
      pz      :     0.848222  p :     2.748687
      px      :     1.056942
      py      :     0.843523
  1 O s       :     3.828276  s :     3.828276
      pz      :     1.189729  p :     4.535322
      px      :     1.908479
      py      :     1.437115
  2 C s       :     3.060444  s :     3.060444
      pz      :     1.062341  p :     3.151329
      px      :     1.002407
      py      :     1.086581
  3 C s       :     3.130478  s :     3.130478
      pz      :     0.902769  p :     3.077559
      px      :     1.070834
      py      :     1.103956
  4 H s       :     0.868268  s :     0.868268
  5 H s       :     0.847322  s :     0.847322
  6 H s       :     0.837421  s :     0.837421
  7 H s       :     0.849980  s :     0.849980


                     *******************************
                     * LOEWDIN POPULATION ANALYSIS *
                     *******************************

----------------------
LOEWDIN ATOMIC CHARGES
----------------------
   0 C :    0.156354
   1 O :   -0.263831
   2 C :   -0.157424
   3 C :   -0.113466
   4 H :    0.072914
   5 H :    0.094996
   6 H :    0.110776
   7 H :    0.099680

-------------------------------
LOEWDIN REDUCED ORBITAL CHARGES
-------------------------------
  0 C s       :     2.994540  s :     2.994540
      pz      :     0.853810  p :     2.849106
      px      :     1.060495
      py      :     0.934802
  1 O s       :     3.689965  s :     3.689965
      pz      :     1.186624  p :     4.573865
      px      :     1.910785
      py      :     1.476456
  2 C s       :     2.940560  s :     2.940560
      pz      :     1.054805  p :     3.216864
      px      :     1.071285
      py      :     1.090773
  3 C s       :     2.996668  s :     2.996668
      pz      :     0.907524  p :     3.116797
      px      :     1.106401
      py      :     1.102872
  4 H s       :     0.927086  s :     0.927086
  5 H s       :     0.905004  s :     0.905004
  6 H s       :     0.889224  s :     0.889224
  7 H s       :     0.900320  s :     0.900320


                      *****************************
                      * MAYER POPULATION ANALYSIS *
                      *****************************

  NA   - Mulliken gross atomic population
  ZA   - Total nuclear charge
  QA   - Mulliken gross atomic charge
  VA   - Mayer's total valence
  BVA  - Mayer's bonded valence
  FA   - Mayer's free valence

  ATOM       NA         ZA         QA         VA         BVA        FA
  0 C      5.8136     6.0000     0.1864     3.8641     3.8641     0.0000
  1 O      8.3636     8.0000    -0.3636     2.0651     2.0651     0.0000
  2 C      6.2118     6.0000    -0.2118     3.9729     3.9729    -0.0000
  3 C      6.2080     6.0000    -0.2080     3.9391     3.9391    -0.0000
  4 H      0.8683     1.0000     0.1317     0.9826     0.9826     0.0000
  5 H      0.8473     1.0000     0.1527     0.9767     0.9767    -0.0000
  6 H      0.8374     1.0000     0.1626     0.9736     0.9736     0.0000
  7 H      0.8500     1.0000     0.1500     0.9775     0.9775     0.0000

  Mayer bond orders larger than 0.100000
B(  0-C ,  1-O ) :   1.9202 B(  0-C ,  2-C ) :   1.0011 B(  0-C ,  4-H ) :   0.9214 
B(  2-C ,  3-C ) :   1.9699 B(  2-C ,  5-H ) :   0.9537 B(  3-C ,  6-H ) :   0.9499 
B(  3-C ,  7-H ) :   0.9594 

-------
TIMINGS
-------

Total SCF time: 0 days 0 hours 0 min 4 sec 

Total time                  ....       4.269 sec
Sum of individual times     ....       0.712 sec  ( 16.7%)

Fock matrix formation       ....       0.115 sec  (  2.7%)
Diagonalization             ....       0.001 sec  (  0.0%)
Density matrix formation    ....       0.000 sec  (  0.0%)
Population analysis         ....       0.244 sec  (  5.7%)
Initial guess               ....       0.002 sec  (  0.0%)
Orbital Transformation      ....       0.000 sec  (  0.0%)
Orbital Orthonormalization  ....       0.000 sec  (  0.0%)
DIIS solution               ....       0.002 sec  (  0.0%)
SOSCF solution              ....       0.348 sec  (  8.1%)

Maximum memory used throughout the entire SCF-calculation: 225.0 MB
------------------------------------------------------------------------------
                         ORCA CIS CALCULATION
------------------------------------------------------------------------------

Input orbitals are from        ... acrolien.1115.gbw
CI-vector output               ... acrolien.1115.cis
Tamm-Dancoff approximation     ... operative
CIS-Integral strategy          ... AO-integrals
Integral handling              ... AO integral Conventional
Reference state                ... RHF
Generation of triplets         ... off
Follow IRoot                   ... off
Number of operators            ... 1
Orbital ranges used for CIS calculation:
 Operator 0:  Orbitals   4... 14  to  15... 23
XAS localization array:
 Operator 0:  Orbitals  -1... -1

------------------------
DAVIDSON-DIAGONALIZATION
------------------------

Dimension of the eigenvalue problem            ...     99
Number of roots to be determined               ...      1
Maximum size of the expansion space            ...     10
Maximum number of iterations                   ...    100
Convergence tolerance for the residual         ...    2.500e-07
Convergence tolerance for the energies         ...    2.500e-07
Orthogonality tolerance                        ...    1.000e-14
Level Shift                                    ...    0.000e+00
Constructing the preconditioner                ... o.k.
Building the initial guess                     ... o.k.
Number of trial vectors determined             ...     10


                       ****Iteration    0****

   Memory handling for direct AO based CIS:
   Memory per vector needed      ...     1 MB
   Memory needed                 ...     0 MB
   Memory available              ...   512 MB
   Number of vectors per batch   ...   512
   Number of batches             ...     1
   Time for densities:            0.000
   SHARK[4]
   Time for Sigma-Completion:     0.000
   Size of expansion space: 3
   Lowest Energy          :     0.210951297580
   Maximum Energy change  :     0.210951297580 (vector 0)
   Maximum residual norm  :     0.015031289627

                       ****Iteration    1****
   Time for densities:            0.000
   SHARK[4]
   Time for Sigma-Completion:     0.000
   Size of expansion space: 4
   Lowest Energy          :     0.158618038149
   Maximum Energy change  :     0.052333259430 (vector 0)
   Maximum residual norm  :     0.001092294245

                       ****Iteration    2****
   Time for densities:            0.000
   SHARK[4]
   Time for Sigma-Completion:     0.000
   Size of expansion space: 5
   Lowest Energy          :     0.155829822549
   Maximum Energy change  :     0.002788215600 (vector 0)
   Maximum residual norm  :     0.000071720780

                       ****Iteration    3****
   Time for densities:            0.000
   SHARK[4]
   Time for Sigma-Completion:     0.000
   Size of expansion space: 6
   Lowest Energy          :     0.155701992816
   Maximum Energy change  :     0.000127829733 (vector 0)
   Maximum residual norm  :     0.000008627244

                       ****Iteration    4****
   Time for densities:            0.000
   SHARK[4]
   Time for Sigma-Completion:     0.000
   Size of expansion space: 7
   Lowest Energy          :     0.155689755721
   Maximum Energy change  :     0.000012237095 (vector 0)
   Maximum residual norm  :     0.000000913288

                       ****Iteration    5****
   Time for densities:            0.000
   SHARK[4]
   Time for Sigma-Completion:     0.000
   Size of expansion space: 8
   Lowest Energy          :     0.155688297133
   Maximum Energy change  :     0.000001458589 (vector 0)
   Maximum residual norm  :     0.000000081227

      *** CONVERGENCE OF RESIDUAL NORM REACHED ***

Storing the converged CI vectors               ... acrolien.1115.cis1

                 *** DAVIDSON DONE ***

Total time for solving the CIS problem:     2.330sec

-----------------------------
CIS-EXCITED STATES (SINGLETS)
-----------------------------

the weight of the individual excitations are printed if larger than 1.0e-02

STATE  1:  E=   0.155688 au      4.236 eV    34169.6 cm**-1 <S**2> =   0.000000
    10a ->  15a  :     0.010010 (c=  0.10005081)
    14a ->  15a  :     0.806191 (c=  0.89788137)
    14a ->  16a  :     0.138655 (c=  0.37236449)


----------------------
CIS-EXCITATION SPECTRA
----------------------

Center of mass = (  0.5774, -0.9099, -0.0006)
Calculating the Dipole integrals                  ... done
Transforming integrals                            ... done
Calculating the Linear Momentum integrals         ... done
Transforming integrals                            ... done
Calculating angular momentum integrals            ... done
Transforming integrals                            ... done

-----------------------------------------------------------------------------
         ABSORPTION SPECTRUM VIA TRANSITION ELECTRIC DIPOLE MOMENTS
-----------------------------------------------------------------------------
State   Energy    Wavelength  fosc         T2        TX        TY        TZ  
        (cm-1)      (nm)                 (au**2)    (au)      (au)      (au) 
-----------------------------------------------------------------------------
   1   34169.6    292.7   0.000069475   0.00067   0.00170  -0.00147   0.02577

-----------------------------------------------------------------------------
         ABSORPTION SPECTRUM VIA TRANSITION VELOCITY DIPOLE MOMENTS
-----------------------------------------------------------------------------
State   Energy    Wavelength   fosc        P2         PX        PY        PZ  
        (cm-1)      (nm)                 (au**2)     (au)      (au)      (au) 
-----------------------------------------------------------------------------
   1   34169.6    292.7   0.000845489   0.00020   0.00001   0.00111  -0.01401

-------------------------------------------------------------------
                             CD SPECTRUM
-------------------------------------------------------------------
State  Energy     Wavelength     R         MX        MY        MZ   
       (cm-1)       (nm)     (1e40*cgs)   (au)      (au)      (au)  
-------------------------------------------------------------------
   1   34169.6    292.7      0.15693   0.07741   0.49875   0.03618

-------------------------------------------------------------------
         CD SPECTRUM VIA TRANSITION VELOCITY DIPOLE MOMENTS        
-------------------------------------------------------------------
State  Energy     Wavelength     R         MX        MY        MZ   
       (cm-1)       (nm)     (1e40*cgs)   (au)      (au)      (au)  
-------------------------------------------------------------------
   1   34169.6    292.7      0.14017   0.07741   0.49875   0.03618

Total run time:        3.615 sec

           *** ORCA-CIS/TD-DFT FINISHED WITHOUT ERROR ***

Maximum memory used throughout the entire CIS-calculation: 51.7 MB

-----------------------
CIS/TD-DFT TOTAL ENERGY
-----------------------

    E(SCF)  =   -189.390431708 Eh
    DE(CIS) =      0.155688297 Eh (Root  1)
    ----------------------------- ---------
    E(tot)  =   -189.234743411 Eh



-------------------------------------------------------------------------------
                          DFT DISPERSION CORRECTION                            
                                                                               
                              DFTD3 V3.1  Rev 1                                
                          USING Becke-Johnson damping                          
-------------------------------------------------------------------------------
Hartree-Fock is recognized
Active option DFTDOPT                   ...         4   

molecular C6(AA) [au] = 660.459110 


            DFT-D V3
 parameters
 using HF/MINIX parameters
 s6 scaling factor         :     1.0000 
 a1 scaling factor         :     0.4171 
 s8 scaling factor         :     0.8777 
 a2 scaling factor         :     2.9149 
 ad hoc parameters k1-k3   :    16.0000     1.3333    -4.0000 

 Edisp/kcal,au: -16.460855224083  -0.026232039752 
 E6   /kcal   :  -9.098479823 
 E8   /kcal   :  -7.362375401 
 % E8         :  44.726566758 

-------------------------   ----------------
Dispersion correction           -0.026232040
-------------------------   ----------------

------------------   -----------------
gCP+bas correction        -0.056855519
------------------   -----------------
----------------------------   ----------------
Total correction to HF/MINIX       -0.083087559
----------------------------   ----------------


-------------------------   --------------------
FINAL SINGLE POINT ENERGY      -189.317830969979
-------------------------   --------------------


                            ***************************************
                            *     ORCA property calculations      *
                            ***************************************

                                    ---------------------
                                    Active property flags
                                    ---------------------
   (+) Dipole Moment


------------------------------------------------------------------------------
                       ORCA ELECTRIC PROPERTIES CALCULATION
------------------------------------------------------------------------------

Dipole Moment Calculation                       ... on
Quadrupole Moment Calculation                   ... off
Polarizability Calculation                      ... off
GBWName                                         ... acrolien.1115.gbw
Electron density                                ... acrolien.1115.scfp
The origin for moment calculation is the CENTER OF MASS  = ( 0.577397, -0.909916 -0.000551)

-------------
DIPOLE MOMENT
-------------
                                X             Y             Z
Electronic contribution:     -1.82803      -1.56344       0.09281
Nuclear contribution   :      2.20351       2.42833      -0.09413
                        -----------------------------------------
Total Dipole Moment    :      0.37548       0.86490      -0.00132
                        -----------------------------------------
Magnitude (a.u.)       :      0.94288
Magnitude (Debye)      :      2.39662



--------------------
Rotational spectrum 
--------------------
 
Rotational constants in cm-1:     0.833907     0.211316     0.168943 
Rotational constants in MHz : 24999.891645  6335.088850  5064.789725 

 Dipole components along the rotational axes: 
x,y,z [a.u.] :     0.789723    -0.515138    -0.001176 
x,y,z [Debye]:     2.007317    -1.309376    -0.002989 

 

Timings for individual modules:

Sum of individual times         ...       12.334 sec (=   0.206 min)
GTO integral calculation        ...        3.950 sec (=   0.066 min)  32.0 %
SCF iterations                  ...        4.682 sec (=   0.078 min)  38.0 %
CIS module                      ...        3.702 sec (=   0.062 min)  30.0 %
                             ****ORCA TERMINATED NORMALLY****
TOTAL RUN TIME: 0 days 0 hours 0 minutes 15 seconds 636 msec
