
                                 *****************
                                 * O   R   C   A *
                                 *****************

                                            #,                                       
                                            ###                                      
                                            ####                                     
                                            #####                                    
                                            ######                                   
                                           ########,                                 
                                     ,,################,,,,,                         
                               ,,#################################,,                 
                          ,,##########################################,,             
                       ,#########################################, ''#####,          
                    ,#############################################,,   '####,        
                  ,##################################################,,,,####,       
                ,###########''''           ''''###############################       
              ,#####''   ,,,,##########,,,,          '''####'''          '####       
            ,##' ,,,,###########################,,,                        '##       
           ' ,,###''''                  '''############,,,                           
         ,,##''                                '''############,,,,        ,,,,,,###''
      ,#''                                            '''#######################'''  
     '                                                          ''''####''''         
             ,#######,   #######,   ,#######,      ##                                
            ,#'     '#,  ##    ##  ,#'     '#,    #''#        ######   ,####,        
            ##       ##  ##   ,#'  ##            #'  '#       #        #'  '#        
            ##       ##  #######   ##           ,######,      #####,   #    #        
            '#,     ,#'  ##    ##  '#,     ,#' ,#      #,         ##   #,  ,#        
             '#######'   ##     ##  '#######'  #'      '#     #####' # '####'        



                  #######################################################
                  #                        -***-                        #
                  #          Department of theory and spectroscopy      #
                  #    Directorship and core code : Frank Neese         #
                  #        Max Planck Institute fuer Kohlenforschung    #
                  #                Kaiser Wilhelm Platz 1               #
                  #                 D-45470 Muelheim/Ruhr               #
                  #                      Germany                        #
                  #                                                     #
                  #                  All rights reserved                #
                  #                        -***-                        #
                  #######################################################


                         Program Version 5.0.3 -  RELEASE  -


 With contributions from (in alphabetic order):
   Daniel Aravena         : Magnetic Suceptibility
   Michael Atanasov       : Ab Initio Ligand Field Theory (pilot matlab implementation)
   Alexander A. Auer      : GIAO ZORA, VPT2 properties, NMR spectrum
   Ute Becker             : Parallelization
   Giovanni Bistoni       : ED, misc. LED, open-shell LED, HFLD
   Martin Brehm           : Molecular dynamics
   Dmytro Bykov           : SCF Hessian
   Vijay G. Chilkuri      : MRCI spin determinant printing, contributions to CSF-ICE
   Dipayan Datta          : RHF DLPNO-CCSD density
   Achintya Kumar Dutta   : EOM-CC, STEOM-CC
   Dmitry Ganyushin       : Spin-Orbit,Spin-Spin,Magnetic field MRCI
   Miquel Garcia          : C-PCM and meta-GGA Hessian, CC/C-PCM, Gaussian charge scheme
   Yang Guo               : DLPNO-NEVPT2, F12-NEVPT2, CIM, IAO-localization
   Andreas Hansen         : Spin unrestricted coupled pair/coupled cluster methods
   Benjamin Helmich-Paris : MC-RPA, TRAH-SCF, COSX integrals
   Lee Huntington         : MR-EOM, pCC
   Robert Izsak           : Overlap fitted RIJCOSX, COSX-SCS-MP3, EOM
   Marcus Kettner         : VPT2
   Christian Kollmar      : KDIIS, OOCD, Brueckner-CCSD(T), CCSD density, CASPT2, CASPT2-K
   Simone Kossmann        : Meta GGA functionals, TD-DFT gradient, OOMP2, MP2 Hessian
   Martin Krupicka        : Initial AUTO-CI
   Lucas Lang             : DCDCAS
   Marvin Lechner         : AUTO-CI (C++ implementation), FIC-MRCC
   Dagmar Lenk            : GEPOL surface, SMD
   Dimitrios Liakos       : Extrapolation schemes; Compound Job, initial MDCI parallelization
   Dimitrios Manganas     : Further ROCIS development; embedding schemes
   Dimitrios Pantazis     : SARC Basis sets
   Anastasios Papadopoulos: AUTO-CI, single reference methods and gradients
   Taras Petrenko         : DFT Hessian,TD-DFT gradient, ASA, ECA, R-Raman, ABS, FL, XAS/XES, NRVS
   Peter Pinski           : DLPNO-MP2, DLPNO-MP2 Gradient
   Christoph Reimann      : Effective Core Potentials
   Marius Retegan         : Local ZFS, SOC
   Christoph Riplinger    : Optimizer, TS searches, QM/MM, DLPNO-CCSD(T), (RO)-DLPNO pert. Triples
   Tobias Risthaus        : Range-separated hybrids, TD-DFT gradient, RPA, STAB
   Michael Roemelt        : Original ROCIS implementation
   Masaaki Saitow         : Open-shell DLPNO-CCSD energy and density
   Barbara Sandhoefer     : DKH picture change effects
   Avijit Sen             : IP-ROCIS
   Kantharuban Sivalingam : CASSCF convergence, NEVPT2, FIC-MRCI
   Bernardo de Souza      : ESD, SOC TD-DFT
   Georgi Stoychev        : AutoAux, RI-MP2 NMR, DLPNO-MP2 response
   Willem Van den Heuvel  : Paramagnetic NMR
   Boris Wezisla          : Elementary symmetry handling
   Frank Wennmohs         : Technical directorship


 We gratefully acknowledge several colleagues who have allowed us to
 interface, adapt or use parts of their codes:
   Stefan Grimme, W. Hujo, H. Kruse, P. Pracht,  : VdW corrections, initial TS optimization,
                  C. Bannwarth, S. Ehlert          DFT functionals, gCP, sTDA/sTD-DF
   Ed Valeev, F. Pavosevic, A. Kumar             : LibInt (2-el integral package), F12 methods
   Garnet Chan, S. Sharma, J. Yang, R. Olivares  : DMRG
   Ulf Ekstrom                                   : XCFun DFT Library
   Mihaly Kallay                                 : mrcc  (arbitrary order and MRCC methods)
   Jiri Pittner, Ondrej Demel                    : Mk-CCSD
   Frank Weinhold                                : gennbo (NPA and NBO analysis)
   Christopher J. Cramer and Donald G. Truhlar   : smd solvation model
   Lars Goerigk                                  : TD-DFT with DH, B97 family of functionals
   V. Asgeirsson, H. Jonsson                     : NEB implementation
   FAccTs GmbH                                   : IRC, NEB, NEB-TS, DLPNO-Multilevel, CI-OPT
                                                   MM, QMMM, 2- and 3-layer-ONIOM, Crystal-QMMM,
                                                   LR-CPCM, SF, NACMEs, symmetry and pop. for TD-DFT,
                                                   nearIR, NL-DFT gradient (VV10), updates on ESD,
                                                   ML-optimized integration grids
   S Lehtola, MJT Oliveira, MAL Marques          : LibXC Library
   Liviu Ungur et al                             : ANISO software


 Your calculation uses the libint2 library for the computation of 2-el integrals
 For citations please refer to: http://libint.valeyev.net

 Your ORCA version has been built with support for libXC version: 5.1.0
 For citations please refer to: https://tddft.org/programs/libxc/

 This ORCA versions uses:
   CBLAS   interface :  Fast vector & matrix operations
   LAPACKE interface :  Fast linear algebra routines
   SCALAPACK package :  Parallel linear algebra routines
   Shared memory     :  Shared parallel matrices
   BLAS/LAPACK       :  OpenBLAS 0.3.15  USE64BITINT DYNAMIC_ARCH NO_AFFINITY Haswell SINGLE_THREADED
        Core in use  :  Haswell
   Copyright (c) 2011-2014, The OpenBLAS Project


Your calculation utilizes the geometrical counterpoise correction gCP
Please cite in your paper:
H.Kruse, S. Grimme J.Chem.Phys., 136, (2012), 154101 
   

Your calculation utilizes the atom-pairwise dispersion correction
with the Becke-Johnson damping scheme (D3BJ)
Cite in your paper:
S.Grimme, S.Ehrlich, L.Goerigk, J Comput Chem, (2011), 32, 1456–1465 
S.Grimme, J.Antony, S.Ehrlich and H.Krieg, J.Chem.Phys., 132, (2010), 154104 
   

================================================================================

----- Orbital basis set information -----
Your calculation utilizes the basis: MINIX,
   a combination of small basis sets by S. Grimme (see manual for definitions).

================================================================================
                                        WARNINGS
                       Please study these warnings very carefully!
================================================================================

INFO   : Checking CIS options ...

INFO   : the flag for use of the SHARK integral package has been found!

================================================================================
                                       INPUT FILE
================================================================================
NAME = acrolien.989.com
|  1> ! HF-3c
|  2> !TightSCF
|  3> %scf
|  4>  ConvForced true
|  5>  convergence tight
|  6>  MaxIter 500
|  7> end
|  8>  
|  9> %tddft 
| 10>  nroots 1
| 11> end
| 12> 
| 13> # 	764
| 14> * xyz 0 1
| 15> 		C   -1.215733  -0.315774  -0.050476
| 16> 		O   -1.394045  -1.406398   0.517786
| 17> 		C    0.024805   0.435740   0.203449
| 18> 		C    1.269332   0.067686  -0.119153
| 19> 		H   -1.971101   0.095294  -0.796390
| 20> 		H   -0.157076   1.387752   0.660096
| 21> 		H    1.366609  -0.979454  -0.449083
| 22> 		H    2.083556   0.691997   0.036765
| 23> *
| 24> 
| 25>                          ****END OF INPUT****
================================================================================

                       ****************************
                       * Single Point Calculation *
                       ****************************

---------------------------------
CARTESIAN COORDINATES (ANGSTROEM)
---------------------------------
  C     -1.215733   -0.315774   -0.050476
  O     -1.394045   -1.406398    0.517786
  C      0.024805    0.435740    0.203449
  C      1.269332    0.067686   -0.119153
  H     -1.971101    0.095294   -0.796390
  H     -0.157076    1.387752    0.660096
  H      1.366609   -0.979454   -0.449083
  H      2.083556    0.691997    0.036765

----------------------------
CARTESIAN COORDINATES (A.U.)
----------------------------
  NO LB      ZA    FRAG     MASS         X           Y           Z
   0 C     6.0000    0    12.011   -2.297402   -0.596726   -0.095386
   1 O     8.0000    0    15.999   -2.634363   -2.657707    0.978474
   2 C     6.0000    0    12.011    0.046875    0.823429    0.384463
   3 C     6.0000    0    12.011    2.398690    0.127908   -0.225167
   4 H     1.0000    0     1.008   -3.724841    0.180080   -1.504959
   5 H     1.0000    0     1.008   -0.296831    2.622471    1.247401
   6 H     1.0000    0     1.008    2.582517   -1.850900   -0.848644
   7 H     1.0000    0     1.008    3.937350    1.307685    0.069476

--------------------------------
INTERNAL COORDINATES (ANGSTROEM)
--------------------------------
 C      0   0   0     0.000000000000     0.00000000     0.00000000
 O      1   0   0     1.242649419331     0.00000000     0.00000000
 C      1   2   0     1.472476053206   119.33835619     0.00000000
 C      3   1   2     1.337304472081   127.01112206    65.14013974
 H      1   2   3     1.138395981829   121.42228981   177.44531693
 H      3   1   2     1.071416832477   112.58018086   242.43732421
 H      4   3   1     1.102188186849   114.57102855   348.83290779
 H      4   3   1     1.037803145891   121.89252844   175.49521358

---------------------------
INTERNAL COORDINATES (A.U.)
---------------------------
 C      0   0   0     0.000000000000     0.00000000     0.00000000
 O      1   0   0     2.348267083012     0.00000000     0.00000000
 C      1   2   0     2.782576479317   119.33835619     0.00000000
 C      3   1   2     2.527139209902   127.01112206    65.14013974
 H      1   2   3     2.151256637613   121.42228981   177.44531693
 H      3   1   2     2.024684388654   112.58018086   242.43732421
 H      4   3   1     2.082833821187   114.57102855   348.83290779
 H      4   3   1     1.961163726656   121.89252844   175.49521358

---------------------
BASIS SET INFORMATION
---------------------
There are 3 groups of distinct atoms

 Group   1 Type C   : 6s3p contracted to 2s1p pattern {33/3}
 Group   2 Type O   : 6s3p contracted to 2s1p pattern {33/3}
 Group   3 Type H   : 3s contracted to 1s pattern {3}

Atom   0C    basis set group =>   1
Atom   1O    basis set group =>   2
Atom   2C    basis set group =>   1
Atom   3C    basis set group =>   1
Atom   4H    basis set group =>   3
Atom   5H    basis set group =>   3
Atom   6H    basis set group =>   3
Atom   7H    basis set group =>   3
------------------------------------------------------------------------------
                           ORCA GTO INTEGRAL CALCULATION
------------------------------------------------------------------------------
------------------------------------------------------------------------------
                   ___                                                        
                  /   \      - P O W E R E D   B Y -                         
                 /     \                                                     
                 |  |  |   _    _      __       _____    __    __             
                 |  |  |  | |  | |    /  \     |  _  \  |  |  /  |          
                  \  \/   | |  | |   /    \    | | | |  |  | /  /          
                 / \  \   | |__| |  /  /\  \   | |_| |  |  |/  /          
                |  |  |   |  __  | /  /__\  \  |    /   |      \           
                |  |  |   | |  | | |   __   |  |    \   |  |\   \          
                \     /   | |  | | |  |  |  |  | |\  \  |  | \   \       
                 \___/    |_|  |_| |__|  |__|  |_| \__\ |__|  \__/        
                                                                              
                      - O R C A' S   B I G   F R I E N D -                    
                                      &                                       
                       - I N T E G R A L  F E E D E R -                       
                                                                              
 v1 FN, 2020, v2 2021                                                         
------------------------------------------------------------------------------


Reading SHARK input file acrolien.989.SHARKINP.tmp ... ok
----------------------
SHARK INTEGRAL PACKAGE
----------------------

Number of atoms                             ...      8
Number of basis functions                   ...     24
Number of shells                            ...     16
Maximum angular momentum                    ...      1
Integral batch strategy                     ... SHARK/LIBINT Hybrid
RI-J (if used) integral strategy            ... SPLIT-RIJ (Revised 2003 algorithm where possible)
Printlevel                                  ...      1
Contraction scheme used                     ... SEGMENTED contraction
Coulomb Range Separation                    ... NOT USED
Exchange Range Separation                   ... NOT USED
Finite Nucleus Model                        ... NOT USED
Auxiliary Coulomb fitting basis             ... NOT available
Auxiliary J/K fitting basis                 ... NOT available
Auxiliary Correlation fitting basis         ... NOT available
Auxiliary 'external' fitting basis          ... NOT available
Integral threshold                          ...     2.500000e-11
Primitive cut-off                           ...     2.500000e-12
Primitive pair pre-selection threshold      ...     2.500000e-12

Calculating pre-screening integrals         ... done (  0.0 sec) Dimension = 16
Organizing shell pair data                  ... done (  0.3 sec)
Shell pair information
Total number of shell pairs                 ...       136
Shell pairs after pre-screening             ...       133
Total number of primitive shell pairs       ...      1224
Primitive shell pairs kept                  ...       985
          la=0 lb=0:     75 shell pairs
          la=1 lb=0:     48 shell pairs
          la=1 lb=1:     10 shell pairs

Calculating one electron integrals          ... done (  0.0 sec)
Calculating Nuclear repulsion               ... done (  0.2 sec) ENN=    103.461917333250 Eh
Calculating 4-index integrals               ... 
    -> SHARK/Ints2Disk: Thresh =     2.500000e-11 TCut=    2.500000e-12 
    -> calling libint FockFlag=2 Lmax_loc=1
    ->Total LIBINT loop time =    0.000 sec
    -> L=0 0 0 0:     0.003 sec done=      2821 (=100.0%) skipped=         0 
    -> L=1 0 0 0:     0.007 sec done=      3593 (=100.0%) skipped=         0 
    -> L=1 0 1 0:     0.004 sec done=      1176 (=100.0%) skipped=         0 
    -> L=1 1 0 0:     0.003 sec done=       750 (=100.0%) skipped=         0 
    -> L=1 1 1 0:     0.004 sec done=       480 (=100.0%) skipped=         0 
    -> L=1 1 1 1:     0.001 sec done=        55 (=100.0%) skipped=         0 
    ->Total SHARK integral loop time =    0.022 sec
    -> Total Integral generation matrix time =    0.675 sec
    -> Number of small integrals   =       623
    -> Number of medium integrals  =      1876
    -> Number of large integrals   =     41287
    -> Number of MB stored         =         0 MB


SHARK setup successfully completed in   2.0 seconds

Maximum memory used throughout the entire GTOINT-calculation: 29.5 MB
-------------------------------------------------------------------------------
                                 ORCA SCF
-------------------------------------------------------------------------------

------------
SCF SETTINGS
------------
Hamiltonian:
 Ab initio Hamiltonian  Method          .... Hartree-Fock(GTOs)


General Settings:
 Integral files         IntName         .... acrolien.989
 Hartree-Fock type      HFTyp           .... RHF
 Total Charge           Charge          ....    0
 Multiplicity           Mult            ....    1
 Number of Electrons    NEL             ....   30
 Basis Dimension        Dim             ....   24
 Nuclear Repulsion      ENuc            ....    103.4619173333 Eh

Convergence Acceleration:
 DIIS                   CNVDIIS         .... on
   Start iteration      DIISMaxIt       ....    12
   Startup error        DIISStart       ....  0.200000
   # of expansion vecs  DIISMaxEq       ....     5
   Bias factor          DIISBfac        ....   1.050
   Max. coefficient     DIISMaxC        ....  10.000
 Trust-Rad. Augm. Hess. CNVTRAH         .... auto
   Auto Start mean grad. ratio tolernc. ....  1.125000
   Auto Start start iteration           ....    20
   Auto Start num. interpolation iter.  ....    10
   Max. Number of Micro iterations      ....    16
   Max. Number of Macro iterations      .... Maxiter - #DIIS iter
   Number of Davidson start vectors     ....     2
   Converg. threshold I  (grad. norm)   ....   1.000e-05
   Converg. threshold II (energy diff.) ....   1.000e-08
   Grad. Scal. Fac. for Micro threshold ....   0.100
   Minimum threshold for Micro iter.    ....   0.010
   NR start threshold (gradient norm)   ....   0.001
   Initial trust radius                 ....   0.400
   Minimum AH scaling param. (alpha)    ....   1.000
   Maximum AH scaling param. (alpha)    .... 1000.000
   Orbital update algorithm             .... Taylor
   White noise on init. David. guess    .... on
   Maximum white noise                  ....   0.010
   Quad. conv. algorithm                .... NR
 SOSCF                  CNVSOSCF        .... on
   Start iteration      SOSCFMaxIt      ....   150
   Startup grad/error   SOSCFStart      ....  0.003300
 Level Shifting         CNVShift        .... on
   Level shift para.    LevelShift      ....    0.2500
   Turn off err/grad.   ShiftErr        ....    0.0010
 Zerner damping         CNVZerner       .... off
 Static damping         CNVDamp         .... on
   Fraction old density DampFac         ....    0.7000
   Max. Damping (<1)    DampMax         ....    0.9800
   Min. Damping (>=0)   DampMin         ....    0.0000
   Turn off err/grad.   DampErr         ....    0.1000
 Fernandez-Rico         CNVRico         .... off

SCF Procedure:
 Maximum # iterations   MaxIter         ....   500
 SCF integral mode      SCFMode         .... Conventional
 Integral Threshold     Thresh          ....  2.500e-11 Eh
 Primitive CutOff       TCut            ....  2.500e-12 Eh
 Integral Buffer length BufferLength    .... 1048576
 Integral index format  IndFormat       ....     0
 Integral value format  ValFormat       ....     0
 Integral Storage       Thresh          ....  2.500e-11 Eh

Convergence Tolerance:
 Convergence Check Mode ConvCheckMode   .... Total+1el-Energy
 Convergence forced     ConvForced      .... 1
 Energy Change          TolE            ....  1.000e-08 Eh
 1-El. energy change                    ....  1.000e-05 Eh
 Orbital Gradient       TolG            ....  1.000e-05
 Orbital Rotation angle TolX            ....  1.000e-05
 DIIS Error             TolErr          ....  5.000e-07


Diagonalization of the overlap matrix:
Smallest eigenvalue                        ... 1.846e-01
Time for diagonalization                   ...    0.000 sec
Threshold for overlap eigenvalues          ... 1.000e-08
Number of eigenvalues below threshold      ... 0
Time for construction of square roots      ...    0.648 sec
Total time needed                          ...    0.648 sec

--------------------------------
INITIAL GUESS: MINIMAL BASIS EHT
--------------------------------
The minimal basis has 24 functions
EHT matrix was diagonalized
Basis set overlap was calculated now projecting the orbitals
Using GuessMode=FMatrix for the initial guess
C*T matrix was formed
Effective Fockian was calculated
Effective Fockian was diagonalized
Initial density was built
                      ------------------
                      INITIAL GUESS DONE
                      ------------------

 InCore treatment chosen:
   Memory dedicated               ...    1024 MB
   Memory needed                  ...      0 MB
   Number of tiny    integrals    ...     623
   Number of small   integrals    ...    1876
   Number of regular integrals    ...   41287

--------------
SCF ITERATIONS
--------------
ITER       Energy         Delta-E        Max-DP      RMS-DP      [F,P]     Damp
  0   -189.0443859957   0.000000000000 0.15489580  0.01517485  0.2711856 0.7000
  1   -189.1676969158  -0.123310920168 0.12073710  0.01197940  0.1809996 0.7000
                               ***Turning on DIIS***
  2   -189.2445407879  -0.076843872018 0.07453551  0.00752765  0.1144786 0.7000
  3   -189.3063658078  -0.061825019899 0.11558324  0.01389102  0.0820322 0.0000
  4   -189.4110978333  -0.104732025520 0.01589891  0.00168325  0.0059367 0.0000
  5   -189.4106326876   0.000465145692 0.00600129  0.00071164  0.0036295 0.0000
                      *** Initiating the SOSCF procedure ***
                           *** Shutting down DIIS ***
                      *** Re-Reading the Fockian *** 
                      *** Removing any level shift *** 
ITER      Energy       Delta-E        Grad      Rot      Max-DP    RMS-DP
  6   -189.41069354  -0.0000608572  0.001327  0.001327  0.002480  0.000305
  7   -189.41211464  -0.0014210906  0.000292  0.000418  0.000649  0.000093
  8   -189.41211632  -0.0000016860  0.000177  0.000322  0.000642  0.000095
  9   -189.41211688  -0.0000005540  0.000059  0.000111  0.000161  0.000017
 10   -189.41211691  -0.0000000375  0.000032  0.000098  0.000123  0.000012
 11   -189.41211693  -0.0000000149  0.000012  0.000064  0.000084  0.000009
                 **** Energy Check signals convergence ****
              ***Rediagonalizing the Fockian in SOSCF/NRSCF***

               *****************************************************
               *                     SUCCESS                       *
               *           SCF CONVERGED AFTER  12 CYCLES          *
               *****************************************************


----------------
TOTAL SCF ENERGY
----------------

Total Energy       :         -189.41211693 Eh           -5154.16573 eV

Components:
Nuclear Repulsion  :          103.46191733 Eh            2815.34190 eV
Electronic Energy  :         -292.87403427 Eh           -7969.50763 eV
One Electron Energy:         -461.91193442 Eh          -12569.26274 eV
Two Electron Energy:          169.03790015 Eh            4599.75511 eV

Virial components:
Potential Energy   :         -378.48254656 Eh          -10299.03368 eV
Kinetic Energy     :          189.07042963 Eh            5144.86795 eV
Virial Ratio       :            2.00180720


---------------
SCF CONVERGENCE
---------------

  Last Energy change         ...   -3.9975e-09  Tolerance :   1.0000e-08
  Last MAX-Density change    ...    3.7555e-05  Tolerance :   1.0000e-07
  Last RMS-Density change    ...    3.4523e-06  Tolerance :   5.0000e-09
  Last Orbital Gradient      ...    6.3366e-06  Tolerance :   1.0000e-05
  Last Orbital Rotation      ...    1.8598e-05  Tolerance :   1.0000e-05

             **** THE GBW FILE WAS UPDATED (acrolien.989.gbw) ****
             **** DENSITY acrolien.989.scfp WAS UPDATED ****
             **** ENERGY FILE WAS UPDATED (acrolien.989.en.tmp) ****
             **** THE GBW FILE WAS UPDATED (acrolien.989.gbw) ****
             **** DENSITY acrolien.989.scfp WAS UPDATED ****
----------------
ORBITAL ENERGIES
----------------

  NO   OCC          E(Eh)            E(eV) 
   0   2.0000     -20.363214      -554.1112 
   1   2.0000     -11.292595      -307.2871 
   2   2.0000     -11.191125      -304.5260 
   3   2.0000     -11.184551      -304.3471 
   4   2.0000      -1.383007       -37.6335 
   5   2.0000      -1.077963       -29.3329 
   6   2.0000      -0.894193       -24.3322 
   7   2.0000      -0.753463       -20.5028 
   8   2.0000      -0.694059       -18.8863 
   9   2.0000      -0.630574       -17.1588 
  10   2.0000      -0.598442       -16.2844 
  11   2.0000      -0.549507       -14.9528 
  12   2.0000      -0.489690       -13.3252 
  13   2.0000      -0.419083       -11.4038 
  14   2.0000      -0.396601       -10.7921 
  15   0.0000       0.160705         4.3730 
  16   0.0000       0.232317         6.3217 
  17   0.0000       0.552118        15.0239 
  18   0.0000       0.637100        17.3364 
  19   0.0000       0.675716        18.3872 
  20   0.0000       0.700399        19.0588 
  21   0.0000       0.826313        22.4851 
  22   0.0000       0.927584        25.2408 
  23   0.0000       0.979129        26.6435 

                    ********************************
                    * MULLIKEN POPULATION ANALYSIS *
                    ********************************

-----------------------
MULLIKEN ATOMIC CHARGES
-----------------------
   0 C :    0.154748
   1 O :   -0.337659
   2 C :   -0.162546
   3 C :   -0.243502
   4 H :    0.147805
   5 H :    0.143155
   6 H :    0.151350
   7 H :    0.146649
Sum of atomic charges:   -0.0000000

--------------------------------
MULLIKEN REDUCED ORBITAL CHARGES
--------------------------------
  0 C s       :     3.085451  s :     3.085451
      pz      :     0.918246  p :     2.759800
      px      :     1.005182
      py      :     0.836373
  1 O s       :     3.846373  s :     3.846373
      pz      :     1.379549  p :     4.491286
      px      :     1.766741
      py      :     1.344996
  2 C s       :     3.076198  s :     3.076198
      pz      :     1.027303  p :     3.086347
      px      :     0.997519
      py      :     1.061526
  3 C s       :     3.132240  s :     3.132240
      pz      :     0.986476  p :     3.111262
      px      :     1.043035
      py      :     1.081752
  4 H s       :     0.852195  s :     0.852195
  5 H s       :     0.856845  s :     0.856845
  6 H s       :     0.848650  s :     0.848650
  7 H s       :     0.853351  s :     0.853351


                     *******************************
                     * LOEWDIN POPULATION ANALYSIS *
                     *******************************

----------------------
LOEWDIN ATOMIC CHARGES
----------------------
   0 C :    0.143219
   1 O :   -0.252647
   2 C :   -0.114511
   3 C :   -0.147745
   4 H :    0.087396
   5 H :    0.090705
   6 H :    0.101140
   7 H :    0.092443

-------------------------------
LOEWDIN REDUCED ORBITAL CHARGES
-------------------------------
  0 C s       :     3.004093  s :     3.004093
      pz      :     0.929681  p :     2.852688
      px      :     1.020203
      py      :     0.902803
  1 O s       :     3.725479  s :     3.725479
      pz      :     1.386068  p :     4.527169
      px      :     1.768023
      py      :     1.373078
  2 C s       :     2.964245  s :     2.964245
      pz      :     1.027617  p :     3.150266
      px      :     1.052071
      py      :     1.070578
  3 C s       :     2.997225  s :     2.997225
      pz      :     0.992322  p :     3.150519
      px      :     1.081285
      py      :     1.076912
  4 H s       :     0.912604  s :     0.912604
  5 H s       :     0.909295  s :     0.909295
  6 H s       :     0.898860  s :     0.898860
  7 H s       :     0.907557  s :     0.907557


                      *****************************
                      * MAYER POPULATION ANALYSIS *
                      *****************************

  NA   - Mulliken gross atomic population
  ZA   - Total nuclear charge
  QA   - Mulliken gross atomic charge
  VA   - Mayer's total valence
  BVA  - Mayer's bonded valence
  FA   - Mayer's free valence

  ATOM       NA         ZA         QA         VA         BVA        FA
  0 C      5.8453     6.0000     0.1547     3.8755     3.8755    -0.0000
  1 O      8.3377     8.0000    -0.3377     2.0475     2.0475     0.0000
  2 C      6.1625     6.0000    -0.1625     3.9786     3.9786    -0.0000
  3 C      6.2435     6.0000    -0.2435     3.9517     3.9517    -0.0000
  4 H      0.8522     1.0000     0.1478     0.9782     0.9782     0.0000
  5 H      0.8568     1.0000     0.1432     0.9795     0.9795    -0.0000
  6 H      0.8486     1.0000     0.1514     0.9771     0.9771     0.0000
  7 H      0.8534     1.0000     0.1466     0.9785     0.9785     0.0000

  Mayer bond orders larger than 0.100000
B(  0-C ,  1-O ) :   1.9324 B(  0-C ,  2-C ) :   1.0110 B(  0-C ,  4-H ) :   0.9194 
B(  2-C ,  3-C ) :   1.9813 B(  2-C ,  5-H ) :   0.9516 B(  3-C ,  6-H ) :   0.9621 
B(  3-C ,  7-H ) :   0.9656 

-------
TIMINGS
-------

Total SCF time: 0 days 0 hours 0 min 2 sec 

Total time                  ....       2.935 sec
Sum of individual times     ....       0.471 sec  ( 16.0%)

Fock matrix formation       ....       0.095 sec  (  3.2%)
Diagonalization             ....       0.001 sec  (  0.0%)
Density matrix formation    ....       0.000 sec  (  0.0%)
Population analysis         ....       0.226 sec  (  7.7%)
Initial guess               ....       0.002 sec  (  0.1%)
Orbital Transformation      ....       0.000 sec  (  0.0%)
Orbital Orthonormalization  ....       0.000 sec  (  0.0%)
DIIS solution               ....       0.002 sec  (  0.1%)
SOSCF solution              ....       0.144 sec  (  4.9%)

Maximum memory used throughout the entire SCF-calculation: 224.9 MB
------------------------------------------------------------------------------
                         ORCA CIS CALCULATION
------------------------------------------------------------------------------

Input orbitals are from        ... acrolien.989.gbw
CI-vector output               ... acrolien.989.cis
Tamm-Dancoff approximation     ... operative
CIS-Integral strategy          ... AO-integrals
Integral handling              ... AO integral Conventional
Reference state                ... RHF
Generation of triplets         ... off
Follow IRoot                   ... off
Number of operators            ... 1
Orbital ranges used for CIS calculation:
 Operator 0:  Orbitals   4... 14  to  15... 23
XAS localization array:
 Operator 0:  Orbitals  -1... -1

------------------------
DAVIDSON-DIAGONALIZATION
------------------------

Dimension of the eigenvalue problem            ...     99
Number of roots to be determined               ...      1
Maximum size of the expansion space            ...     10
Maximum number of iterations                   ...    100
Convergence tolerance for the residual         ...    2.500e-07
Convergence tolerance for the energies         ...    2.500e-07
Orthogonality tolerance                        ...    1.000e-14
Level Shift                                    ...    0.000e+00
Constructing the preconditioner                ... o.k.
Building the initial guess                     ... o.k.
Number of trial vectors determined             ...     10


                       ****Iteration    0****

   Memory handling for direct AO based CIS:
   Memory per vector needed      ...     1 MB
   Memory needed                 ...     0 MB
   Memory available              ...   512 MB
   Number of vectors per batch   ...   512
   Number of batches             ...     1
   Time for densities:            0.001
   SHARK[4]
   Time for Sigma-Completion:     0.000
   Size of expansion space: 3
   Lowest Energy          :     0.208079630484
   Maximum Energy change  :     0.208079630484 (vector 0)
   Maximum residual norm  :     0.014991212949

                       ****Iteration    1****
   Time for densities:            0.000
   SHARK[4]
   Time for Sigma-Completion:     0.000
   Size of expansion space: 4
   Lowest Energy          :     0.151591586399
   Maximum Energy change  :     0.056488044085 (vector 0)
   Maximum residual norm  :     0.002554143487

                       ****Iteration    2****
   Time for densities:            0.000
   SHARK[4]
   Time for Sigma-Completion:     0.000
   Size of expansion space: 5
   Lowest Energy          :     0.147054086493
   Maximum Energy change  :     0.004537499906 (vector 0)
   Maximum residual norm  :     0.000404538979

                       ****Iteration    3****
   Time for densities:            0.000
   SHARK[4]
   Time for Sigma-Completion:     0.000
   Size of expansion space: 6
   Lowest Energy          :     0.146486947681
   Maximum Energy change  :     0.000567138812 (vector 0)
   Maximum residual norm  :     0.000021864809

                       ****Iteration    4****
   Time for densities:            0.000
   SHARK[4]
   Time for Sigma-Completion:     0.000
   Size of expansion space: 7
   Lowest Energy          :     0.146447622464
   Maximum Energy change  :     0.000039325217 (vector 0)
   Maximum residual norm  :     0.000002445044

                       ****Iteration    5****
   Time for densities:            0.000
   SHARK[4]
   Time for Sigma-Completion:     0.000
   Size of expansion space: 8
   Lowest Energy          :     0.146441231298
   Maximum Energy change  :     0.000006391167 (vector 0)
   Maximum residual norm  :     0.000000419584

                       ****Iteration    6****
   Time for densities:            0.000
   SHARK[4]
   Time for Sigma-Completion:     0.001
   Size of expansion space: 9
   Lowest Energy          :     0.146440481725
   Maximum Energy change  :     0.000000749572 (vector 0)
   Maximum residual norm  :     0.000000028038

      *** CONVERGENCE OF RESIDUAL NORM REACHED ***

Storing the converged CI vectors               ... acrolien.989.cis1

                 *** DAVIDSON DONE ***

Total time for solving the CIS problem:     1.489sec

-----------------------------
CIS-EXCITED STATES (SINGLETS)
-----------------------------

the weight of the individual excitations are printed if larger than 1.0e-02

STATE  1:  E=   0.146440 au      3.985 eV    32140.0 cm**-1 <S**2> =   0.000000
     9a ->  15a  :     0.015247 (c=  0.12347720)
    11a ->  15a  :     0.015724 (c= -0.12539497)
    13a ->  15a  :     0.631390 (c=  0.79460065)
    13a ->  16a  :     0.165678 (c=  0.40703542)
    14a ->  15a  :     0.105065 (c= -0.32413710)
    14a ->  16a  :     0.031440 (c= -0.17731467)


----------------------
CIS-EXCITATION SPECTRA
----------------------

Center of mass = ( -0.6751, -0.6418,  0.2743)
Calculating the Dipole integrals                  ... done
Transforming integrals                            ... done
Calculating the Linear Momentum integrals         ... done
Transforming integrals                            ... done
Calculating angular momentum integrals            ... done
Transforming integrals                            ... done

-----------------------------------------------------------------------------
         ABSORPTION SPECTRUM VIA TRANSITION ELECTRIC DIPOLE MOMENTS
-----------------------------------------------------------------------------
State   Energy    Wavelength  fosc         T2        TX        TY        TZ  
        (cm-1)      (nm)                 (au**2)    (au)      (au)      (au) 
-----------------------------------------------------------------------------
   1   32140.0    311.1   0.000055252   0.00057  -0.02259   0.00467   0.00581

-----------------------------------------------------------------------------
         ABSORPTION SPECTRUM VIA TRANSITION VELOCITY DIPOLE MOMENTS
-----------------------------------------------------------------------------
State   Energy    Wavelength   fosc        P2         PX        PY        PZ  
        (cm-1)      (nm)                 (au**2)     (au)      (au)      (au) 
-----------------------------------------------------------------------------
   1   32140.0    311.1   0.000678634   0.00015  -0.00142   0.00638   0.01031

-------------------------------------------------------------------
                             CD SPECTRUM
-------------------------------------------------------------------
State  Energy     Wavelength     R         MX        MY        MZ   
       (cm-1)       (nm)     (1e40*cgs)   (au)      (au)      (au)  
-------------------------------------------------------------------
   1   32140.0    311.1      0.68681  -0.09033  -0.47528   0.28106

-------------------------------------------------------------------
         CD SPECTRUM VIA TRANSITION VELOCITY DIPOLE MOMENTS        
-------------------------------------------------------------------
State  Energy     Wavelength     R         MX        MY        MZ   
       (cm-1)       (nm)     (1e40*cgs)   (au)      (au)      (au)  
-------------------------------------------------------------------
   1   32140.0    311.1     -0.01325  -0.09033  -0.47528   0.28106

Total run time:        1.878 sec

           *** ORCA-CIS/TD-DFT FINISHED WITHOUT ERROR ***

Maximum memory used throughout the entire CIS-calculation: 51.7 MB

-----------------------
CIS/TD-DFT TOTAL ENERGY
-----------------------

    E(SCF)  =   -189.412116932 Eh
    DE(CIS) =      0.146440482 Eh (Root  1)
    ----------------------------- ---------
    E(tot)  =   -189.265676450 Eh



-------------------------------------------------------------------------------
                          DFT DISPERSION CORRECTION                            
                                                                               
                              DFTD3 V3.1  Rev 1                                
                          USING Becke-Johnson damping                          
-------------------------------------------------------------------------------
Hartree-Fock is recognized
Active option DFTDOPT                   ...         4   

molecular C6(AA) [au] = 661.042017 


            DFT-D V3
 parameters
 using HF/MINIX parameters
 s6 scaling factor         :     1.0000 
 a1 scaling factor         :     0.4171 
 s8 scaling factor         :     0.8777 
 a2 scaling factor         :     2.9149 
 ad hoc parameters k1-k3   :    16.0000     1.3333    -4.0000 

 Edisp/kcal,au: -15.864456929837  -0.025281618674 
 E6   /kcal   :  -8.794699219 
 E8   /kcal   :  -7.069757711 
 % E8         :  44.563502818 

-------------------------   ----------------
Dispersion correction           -0.025281619
-------------------------   ----------------

------------------   -----------------
gCP+bas correction        -0.042844368
------------------   -----------------
----------------------------   ----------------
Total correction to HF/MINIX       -0.068125987
----------------------------   ----------------


-------------------------   --------------------
FINAL SINGLE POINT ENERGY      -189.333802436819
-------------------------   --------------------


                            ***************************************
                            *     ORCA property calculations      *
                            ***************************************

                                    ---------------------
                                    Active property flags
                                    ---------------------
   (+) Dipole Moment


------------------------------------------------------------------------------
                       ORCA ELECTRIC PROPERTIES CALCULATION
------------------------------------------------------------------------------

Dipole Moment Calculation                       ... on
Quadrupole Moment Calculation                   ... off
Polarizability Calculation                      ... off
GBWName                                         ... acrolien.989.gbw
Electron density                                ... acrolien.989.scfp
The origin for moment calculation is the CENTER OF MASS  = (-0.675111, -0.641838  0.274280)

-------------
DIPOLE MOMENT
-------------
                                X             Y             Z
Electronic contribution:     -2.30114      -1.55236       0.60796
Nuclear contribution   :      2.56559       2.38049      -1.05386
                        -----------------------------------------
Total Dipole Moment    :      0.26445       0.82813      -0.44590
                        -----------------------------------------
Magnitude (a.u.)       :      0.97702
Magnitude (Debye)      :      2.48338



--------------------
Rotational spectrum 
--------------------
 
Rotational constants in cm-1:     0.862225     0.182364     0.160691 
Rotational constants in MHz : 25848.862768  5467.140832  4817.408163 

 Dipole components along the rotational axes: 
x,y,z [a.u.] :     0.680186    -0.639094    -0.288907 
x,y,z [Debye]:     1.728895    -1.624448    -0.734342 

 

Timings for individual modules:

Sum of individual times         ...        7.591 sec (=   0.127 min)
GTO integral calculation        ...        2.218 sec (=   0.037 min)  29.2 %
SCF iterations                  ...        3.253 sec (=   0.054 min)  42.9 %
CIS module                      ...        2.120 sec (=   0.035 min)  27.9 %
                             ****ORCA TERMINATED NORMALLY****
TOTAL RUN TIME: 0 days 0 hours 0 minutes 11 seconds 299 msec
