
                                 *****************
                                 * O   R   C   A *
                                 *****************

                                            #,                                       
                                            ###                                      
                                            ####                                     
                                            #####                                    
                                            ######                                   
                                           ########,                                 
                                     ,,################,,,,,                         
                               ,,#################################,,                 
                          ,,##########################################,,             
                       ,#########################################, ''#####,          
                    ,#############################################,,   '####,        
                  ,##################################################,,,,####,       
                ,###########''''           ''''###############################       
              ,#####''   ,,,,##########,,,,          '''####'''          '####       
            ,##' ,,,,###########################,,,                        '##       
           ' ,,###''''                  '''############,,,                           
         ,,##''                                '''############,,,,        ,,,,,,###''
      ,#''                                            '''#######################'''  
     '                                                          ''''####''''         
             ,#######,   #######,   ,#######,      ##                                
            ,#'     '#,  ##    ##  ,#'     '#,    #''#        ######   ,####,        
            ##       ##  ##   ,#'  ##            #'  '#       #        #'  '#        
            ##       ##  #######   ##           ,######,      #####,   #    #        
            '#,     ,#'  ##    ##  '#,     ,#' ,#      #,         ##   #,  ,#        
             '#######'   ##     ##  '#######'  #'      '#     #####' # '####'        



                  #######################################################
                  #                        -***-                        #
                  #          Department of theory and spectroscopy      #
                  #    Directorship and core code : Frank Neese         #
                  #        Max Planck Institute fuer Kohlenforschung    #
                  #                Kaiser Wilhelm Platz 1               #
                  #                 D-45470 Muelheim/Ruhr               #
                  #                      Germany                        #
                  #                                                     #
                  #                  All rights reserved                #
                  #                        -***-                        #
                  #######################################################


                         Program Version 5.0.3 -  RELEASE  -


 With contributions from (in alphabetic order):
   Daniel Aravena         : Magnetic Suceptibility
   Michael Atanasov       : Ab Initio Ligand Field Theory (pilot matlab implementation)
   Alexander A. Auer      : GIAO ZORA, VPT2 properties, NMR spectrum
   Ute Becker             : Parallelization
   Giovanni Bistoni       : ED, misc. LED, open-shell LED, HFLD
   Martin Brehm           : Molecular dynamics
   Dmytro Bykov           : SCF Hessian
   Vijay G. Chilkuri      : MRCI spin determinant printing, contributions to CSF-ICE
   Dipayan Datta          : RHF DLPNO-CCSD density
   Achintya Kumar Dutta   : EOM-CC, STEOM-CC
   Dmitry Ganyushin       : Spin-Orbit,Spin-Spin,Magnetic field MRCI
   Miquel Garcia          : C-PCM and meta-GGA Hessian, CC/C-PCM, Gaussian charge scheme
   Yang Guo               : DLPNO-NEVPT2, F12-NEVPT2, CIM, IAO-localization
   Andreas Hansen         : Spin unrestricted coupled pair/coupled cluster methods
   Benjamin Helmich-Paris : MC-RPA, TRAH-SCF, COSX integrals
   Lee Huntington         : MR-EOM, pCC
   Robert Izsak           : Overlap fitted RIJCOSX, COSX-SCS-MP3, EOM
   Marcus Kettner         : VPT2
   Christian Kollmar      : KDIIS, OOCD, Brueckner-CCSD(T), CCSD density, CASPT2, CASPT2-K
   Simone Kossmann        : Meta GGA functionals, TD-DFT gradient, OOMP2, MP2 Hessian
   Martin Krupicka        : Initial AUTO-CI
   Lucas Lang             : DCDCAS
   Marvin Lechner         : AUTO-CI (C++ implementation), FIC-MRCC
   Dagmar Lenk            : GEPOL surface, SMD
   Dimitrios Liakos       : Extrapolation schemes; Compound Job, initial MDCI parallelization
   Dimitrios Manganas     : Further ROCIS development; embedding schemes
   Dimitrios Pantazis     : SARC Basis sets
   Anastasios Papadopoulos: AUTO-CI, single reference methods and gradients
   Taras Petrenko         : DFT Hessian,TD-DFT gradient, ASA, ECA, R-Raman, ABS, FL, XAS/XES, NRVS
   Peter Pinski           : DLPNO-MP2, DLPNO-MP2 Gradient
   Christoph Reimann      : Effective Core Potentials
   Marius Retegan         : Local ZFS, SOC
   Christoph Riplinger    : Optimizer, TS searches, QM/MM, DLPNO-CCSD(T), (RO)-DLPNO pert. Triples
   Tobias Risthaus        : Range-separated hybrids, TD-DFT gradient, RPA, STAB
   Michael Roemelt        : Original ROCIS implementation
   Masaaki Saitow         : Open-shell DLPNO-CCSD energy and density
   Barbara Sandhoefer     : DKH picture change effects
   Avijit Sen             : IP-ROCIS
   Kantharuban Sivalingam : CASSCF convergence, NEVPT2, FIC-MRCI
   Bernardo de Souza      : ESD, SOC TD-DFT
   Georgi Stoychev        : AutoAux, RI-MP2 NMR, DLPNO-MP2 response
   Willem Van den Heuvel  : Paramagnetic NMR
   Boris Wezisla          : Elementary symmetry handling
   Frank Wennmohs         : Technical directorship


 We gratefully acknowledge several colleagues who have allowed us to
 interface, adapt or use parts of their codes:
   Stefan Grimme, W. Hujo, H. Kruse, P. Pracht,  : VdW corrections, initial TS optimization,
                  C. Bannwarth, S. Ehlert          DFT functionals, gCP, sTDA/sTD-DF
   Ed Valeev, F. Pavosevic, A. Kumar             : LibInt (2-el integral package), F12 methods
   Garnet Chan, S. Sharma, J. Yang, R. Olivares  : DMRG
   Ulf Ekstrom                                   : XCFun DFT Library
   Mihaly Kallay                                 : mrcc  (arbitrary order and MRCC methods)
   Jiri Pittner, Ondrej Demel                    : Mk-CCSD
   Frank Weinhold                                : gennbo (NPA and NBO analysis)
   Christopher J. Cramer and Donald G. Truhlar   : smd solvation model
   Lars Goerigk                                  : TD-DFT with DH, B97 family of functionals
   V. Asgeirsson, H. Jonsson                     : NEB implementation
   FAccTs GmbH                                   : IRC, NEB, NEB-TS, DLPNO-Multilevel, CI-OPT
                                                   MM, QMMM, 2- and 3-layer-ONIOM, Crystal-QMMM,
                                                   LR-CPCM, SF, NACMEs, symmetry and pop. for TD-DFT,
                                                   nearIR, NL-DFT gradient (VV10), updates on ESD,
                                                   ML-optimized integration grids
   S Lehtola, MJT Oliveira, MAL Marques          : LibXC Library
   Liviu Ungur et al                             : ANISO software


 Your calculation uses the libint2 library for the computation of 2-el integrals
 For citations please refer to: http://libint.valeyev.net

 Your ORCA version has been built with support for libXC version: 5.1.0
 For citations please refer to: https://tddft.org/programs/libxc/

 This ORCA versions uses:
   CBLAS   interface :  Fast vector & matrix operations
   LAPACKE interface :  Fast linear algebra routines
   SCALAPACK package :  Parallel linear algebra routines
   Shared memory     :  Shared parallel matrices
   BLAS/LAPACK       :  OpenBLAS 0.3.15  USE64BITINT DYNAMIC_ARCH NO_AFFINITY Haswell SINGLE_THREADED
        Core in use  :  Haswell
   Copyright (c) 2011-2014, The OpenBLAS Project


================================================================================

----- Orbital basis set information -----
Your calculation utilizes the basis: cc-pVDZ 
       H, B-Ne : Obtained from the ccRepo (grant-hill.group.shef.ac.uk/ccrepo) Feb. 2017
                 T. H. Dunning, Jr., J. Chem. Phys. 90, 1007 (1989)
            He : Obtained from the ccRepo (grant-hill.group.shef.ac.uk/ccrepo) Feb. 2017
                 D. E. Woon, T. H. Dunning, Jr., J. Chem. Phys. 100, 2975 (1994)
  Li-Be, Na-Mg : Obtained from the ccRepo (grant-hill.group.shef.ac.uk/ccrepo) Feb. 2017
                 B. P. Prascher, D. E. Woon, K. A. Peterson, T. H. Dunning, Jr., A. K. Wilson, Theor. Chem. Acc. 128, 69 (2011)
         Al-Ar : Obtained from the ccRepo (grant-hill.group.shef.ac.uk/ccrepo) Feb. 2017
                 D. E. Woon, T. H. Dunning, Jr., J. Chem. Phys. 98, 1358 (1993)
            Ca : Obtained from the Peterson Research Group Website (tyr0.chem.wsu.edu/~kipeters) Feb. 2017
                 J. Koput, K. A. Peterson, J. Phys. Chem. 106, 9595 (2002)
         Sc-Zn : Obtained from the ccRepo (grant-hill.group.shef.ac.uk/ccrepo) Feb. 2017
                 N. B. Balabanov, K. A. Peterson, J. Chem. Phys. 123, 064107 (2005)
                 N. B. Balabanov, K. A. Peterson, J. Chem. Phys. 125, 074110 (2006)
         Ga-Kr : Obtained from the ccRepo (grant-hill.group.shef.ac.uk/ccrepo) Feb. 2017
                 A. K. Wilson, D. E. Woon, K. A. Peterson, T. H. Dunning, Jr., J. Chem. Phys. 110, 7667 (1999)

----- AuxJ basis set information -----
Your calculation utilizes the auxiliary basis: def2/J
   F. Weigend, Phys. Chem. Chem. Phys. 8, 1057 (2006).

================================================================================
                                        WARNINGS
                       Please study these warnings very carefully!
================================================================================

INFO   : Checking CIS options ...

INFO   : the flag for use of the SHARK integral package has been found!

================================================================================
                                       INPUT FILE
================================================================================
NAME = acrolien.284.com
|  1> ! B3LYP cc-pVDZ
|  2> !TightSCF
|  3> %scf
|  4>  ConvForced true
|  5>  convergence tight
|  6>  MaxIter 500
|  7> end
|  8>  
|  9> %tddft 
| 10>  nroots 1
| 11> end
| 12> 
| 13> # 	30521
| 14> * xyz 0 1
| 15> 		C   -0.523388  -0.448939   0.030157
| 16> 		O   -0.591978  -1.601280  -0.014947
| 17> 		C    0.643719   0.399651  -0.003934
| 18> 		C    1.794950  -0.125702   0.005145
| 19> 		H   -1.574114   0.123481   0.007345
| 20> 		H    0.379727   1.459230  -0.172812
| 21> 		H    1.925553  -1.237788  -0.033101
| 22> 		H    2.796129   0.411751   0.057747
| 23> *
| 24> 
| 25>                          ****END OF INPUT****
================================================================================

                       ****************************
                       * Single Point Calculation *
                       ****************************

---------------------------------
CARTESIAN COORDINATES (ANGSTROEM)
---------------------------------
  C     -0.523388   -0.448939    0.030157
  O     -0.591978   -1.601280   -0.014947
  C      0.643719    0.399651   -0.003934
  C      1.794950   -0.125702    0.005145
  H     -1.574114    0.123481    0.007345
  H      0.379727    1.459230   -0.172812
  H      1.925553   -1.237788   -0.033101
  H      2.796129    0.411751    0.057747

----------------------------
CARTESIAN COORDINATES (A.U.)
----------------------------
  NO LB      ZA    FRAG     MASS         X           Y           Z
   0 C     6.0000    0    12.011   -0.989060   -0.848372    0.056988
   1 O     8.0000    0    15.999   -1.118676   -3.025981   -0.028246
   2 C     6.0000    0    12.011    1.216453    0.755231   -0.007434
   3 C     6.0000    0    12.011    3.391964   -0.237542    0.009723
   4 H     1.0000    0     1.008   -2.974644    0.233345    0.013880
   5 H     1.0000    0     1.008    0.717580    2.757545   -0.326567
   6 H     1.0000    0     1.008    3.638768   -2.339080   -0.062552
   7 H     1.0000    0     1.008    5.283918    0.778097    0.109126

--------------------------------
INTERNAL COORDINATES (ANGSTROEM)
--------------------------------
 C      0   0   0     0.000000000000     0.00000000     0.00000000
 O      1   0   0     1.155261329396     0.00000000     0.00000000
 C      1   2   0     1.443400822305   129.30947647     0.00000000
 C      3   1   2     1.265468695073   119.42940843   354.76069148
 H      1   2   3     1.196749836357   115.10202178   174.15808603
 H      3   1   2     1.104952131175   111.97453018   167.06094433
 H      4   3   1     1.120381707955   121.18969536     4.32206808
 H      4   3   1     1.137533334744   127.21924817   184.80233477

---------------------------
INTERNAL COORDINATES (A.U.)
---------------------------
 C      0   0   0     0.000000000000     0.00000000     0.00000000
 O      1   0   0     2.183127525668     0.00000000     0.00000000
 C      1   2   0     2.727632255633   129.30947647     0.00000000
 C      3   1   2     2.391389264740   119.42940843   354.76069148
 H      1   2   3     2.261529441529   115.10202178   174.15808603
 H      3   1   2     2.088056919014   111.97453018   167.06094433
 H      4   3   1     2.117214593491   121.18969536     4.32206808
 H      4   3   1     2.149626470872   127.21924817   184.80233477

---------------------
BASIS SET INFORMATION
---------------------
There are 3 groups of distinct atoms

 Group   1 Type C   : 17s4p1d contracted to 3s2p1d pattern {881/31/1}
 Group   2 Type O   : 17s4p1d contracted to 3s2p1d pattern {881/31/1}
 Group   3 Type H   : 4s1p contracted to 2s1p pattern {31/1}

Atom   0C    basis set group =>   1
Atom   1O    basis set group =>   2
Atom   2C    basis set group =>   1
Atom   3C    basis set group =>   1
Atom   4H    basis set group =>   3
Atom   5H    basis set group =>   3
Atom   6H    basis set group =>   3
Atom   7H    basis set group =>   3
---------------------------------
AUXILIARY/J BASIS SET INFORMATION
---------------------------------
There are 3 groups of distinct atoms

 Group   1 Type C   : 12s5p4d2f1g contracted to 6s4p3d1f1g pattern {711111/2111/211/2/1}
 Group   2 Type O   : 12s5p4d2f1g contracted to 6s4p3d1f1g pattern {711111/2111/211/2/1}
 Group   3 Type H   : 5s2p1d contracted to 3s1p1d pattern {311/2/1}

Atom   0C    basis set group =>   1
Atom   1O    basis set group =>   2
Atom   2C    basis set group =>   1
Atom   3C    basis set group =>   1
Atom   4H    basis set group =>   3
Atom   5H    basis set group =>   3
Atom   6H    basis set group =>   3
Atom   7H    basis set group =>   3
------------------------------------------------------------------------------
                           ORCA GTO INTEGRAL CALCULATION
                           -- RI-GTO INTEGRALS CHOSEN --
------------------------------------------------------------------------------
------------------------------------------------------------------------------
                   ___                                                        
                  /   \      - P O W E R E D   B Y -                         
                 /     \                                                     
                 |  |  |   _    _      __       _____    __    __             
                 |  |  |  | |  | |    /  \     |  _  \  |  |  /  |          
                  \  \/   | |  | |   /    \    | | | |  |  | /  /          
                 / \  \   | |__| |  /  /\  \   | |_| |  |  |/  /          
                |  |  |   |  __  | /  /__\  \  |    /   |      \           
                |  |  |   | |  | | |   __   |  |    \   |  |\   \          
                \     /   | |  | | |  |  |  |  | |\  \  |  | \   \       
                 \___/    |_|  |_| |__|  |__|  |_| \__\ |__|  \__/        
                                                                              
                      - O R C A' S   B I G   F R I E N D -                    
                                      &                                       
                       - I N T E G R A L  F E E D E R -                       
                                                                              
 v1 FN, 2020, v2 2021                                                         
------------------------------------------------------------------------------


Reading SHARK input file acrolien.284.SHARKINP.tmp ... ok
----------------------
SHARK INTEGRAL PACKAGE
----------------------

Number of atoms                             ...      8
Number of basis functions                   ...    100
Number of shells                            ...     60
Maximum angular momentum                    ...      2
Integral batch strategy                     ... SHARK/LIBINT Hybrid
RI-J (if used) integral strategy            ... SPLIT-RIJ (Revised 2003 algorithm where possible)
Printlevel                                  ...      1
Contraction scheme used                     ... PARTIAL GENERAL contraction
Coulomb Range Separation                    ... NOT USED
Exchange Range Separation                   ... NOT USED
Finite Nucleus Model                        ... NOT USED
Auxiliary Coulomb fitting basis             ... AVAILABLE
   # of basis functions in Aux-J            ...    240
   # of shells in Aux-J                     ...     80
   Maximum angular momentum in Aux-J        ...      4
Auxiliary J/K fitting basis                 ... NOT available
Auxiliary Correlation fitting basis         ... NOT available
Auxiliary 'external' fitting basis          ... NOT available
Integral threshold                          ...     2.500000e-11
Primitive cut-off                           ...     2.500000e-12
Primitive pair pre-selection threshold      ...     2.500000e-12

Calculating pre-screening integrals         ... done (  0.0 sec) Dimension = 60
Calculating pre-screening integrals (ORCA)  ... done (  0.1 sec) Dimension = 36
Organizing shell pair data                  ... done (  0.0 sec)
Shell pair information
Total number of shell pairs                 ...      1830
Shell pairs after pre-screening             ...      1538
Total number of primitive shell pairs       ...      2950
Primitive shell pairs kept                  ...      2307
          la=0 lb=0:    728 shell pairs
          la=1 lb=0:    503 shell pairs
          la=1 lb=1:     78 shell pairs
          la=2 lb=0:    171 shell pairs
          la=2 lb=1:     48 shell pairs
          la=2 lb=2:     10 shell pairs

Calculating one electron integrals          ... done (  0.0 sec)
Calculating RI/J V-Matrix + Cholesky decomp.... done (  0.6 sec)
Calculating Nuclear repulsion               ... done (  0.2 sec) ENN=    107.214216762258 Eh

SHARK setup successfully completed in   2.8 seconds

Maximum memory used throughout the entire GTOINT-calculation: 14.2 MB
-------------------------------------------------------------------------------
                                 ORCA SCF
-------------------------------------------------------------------------------

------------
SCF SETTINGS
------------
Hamiltonian:
 Density Functional     Method          .... DFT(GTOs)
 Exchange Functional    Exchange        .... B88
   X-Alpha parameter    XAlpha          ....  0.666667
   Becke's b parameter  XBeta           ....  0.004200
 Correlation Functional Correlation     .... LYP
 LDA part of GGA corr.  LDAOpt          .... VWN-5
 Gradients option       PostSCFGGA      .... off
 Hybrid DFT is turned on
   Fraction HF Exchange ScalHFX         ....  0.200000
   Scaling of DF-GGA-X  ScalDFX         ....  0.720000
   Scaling of DF-GGA-C  ScalDFC         ....  0.810000
   Scaling of DF-LDA-C  ScalLDAC        ....  1.000000
   Perturbative correction              ....  0.000000
   Density functional embedding theory  .... OFF
   NL short-range parameter             ....  4.800000
 RI-approximation to the Coulomb term is turned on
   Number of AuxJ basis functions       .... 240
   RIJ-COSX (HFX calculated with COS-X)).... on


General Settings:
 Integral files         IntName         .... acrolien.284
 Hartree-Fock type      HFTyp           .... RHF
 Total Charge           Charge          ....    0
 Multiplicity           Mult            ....    1
 Number of Electrons    NEL             ....   30
 Basis Dimension        Dim             ....   76
 Nuclear Repulsion      ENuc            ....    107.2142167623 Eh

Convergence Acceleration:
 DIIS                   CNVDIIS         .... on
   Start iteration      DIISMaxIt       ....    12
   Startup error        DIISStart       ....  0.200000
   # of expansion vecs  DIISMaxEq       ....     5
   Bias factor          DIISBfac        ....   1.050
   Max. coefficient     DIISMaxC        ....  10.000
 Trust-Rad. Augm. Hess. CNVTRAH         .... auto
   Auto Start mean grad. ratio tolernc. ....  1.125000
   Auto Start start iteration           ....    20
   Auto Start num. interpolation iter.  ....    10
   Max. Number of Micro iterations      ....    16
   Max. Number of Macro iterations      .... Maxiter - #DIIS iter
   Number of Davidson start vectors     ....     2
   Converg. threshold I  (grad. norm)   ....   1.000e-05
   Converg. threshold II (energy diff.) ....   1.000e-08
   Grad. Scal. Fac. for Micro threshold ....   0.100
   Minimum threshold for Micro iter.    ....   0.010
   NR start threshold (gradient norm)   ....   0.001
   Initial trust radius                 ....   0.400
   Minimum AH scaling param. (alpha)    ....   1.000
   Maximum AH scaling param. (alpha)    .... 1000.000
   Orbital update algorithm             .... Taylor
   White noise on init. David. guess    .... on
   Maximum white noise                  ....   0.010
   Quad. conv. algorithm                .... NR
 SOSCF                  CNVSOSCF        .... on
   Start iteration      SOSCFMaxIt      ....   150
   Startup grad/error   SOSCFStart      ....  0.003300
 Level Shifting         CNVShift        .... on
   Level shift para.    LevelShift      ....    0.2500
   Turn off err/grad.   ShiftErr        ....    0.0010
 Zerner damping         CNVZerner       .... off
 Static damping         CNVDamp         .... on
   Fraction old density DampFac         ....    0.7000
   Max. Damping (<1)    DampMax         ....    0.9800
   Min. Damping (>=0)   DampMin         ....    0.0000
   Turn off err/grad.   DampErr         ....    0.1000
 Fernandez-Rico         CNVRico         .... off

SCF Procedure:
 Maximum # iterations   MaxIter         ....   500
 SCF integral mode      SCFMode         .... Direct
   Integral package                     .... SHARK and LIBINT hybrid scheme
 Reset frequency        DirectResetFreq ....    20
 Integral Threshold     Thresh          ....  2.500e-11 Eh
 Primitive CutOff       TCut            ....  2.500e-12 Eh

Convergence Tolerance:
 Convergence Check Mode ConvCheckMode   .... Total+1el-Energy
 Convergence forced     ConvForced      .... 1
 Energy Change          TolE            ....  1.000e-08 Eh
 1-El. energy change                    ....  1.000e-05 Eh
 Orbital Gradient       TolG            ....  1.000e-05
 Orbital Rotation angle TolX            ....  1.000e-05
 DIIS Error             TolErr          ....  5.000e-07


Diagonalization of the overlap matrix:
Smallest eigenvalue                        ... 2.289e-03
Time for diagonalization                   ...    0.001 sec
Threshold for overlap eigenvalues          ... 1.000e-08
Number of eigenvalues below threshold      ... 0
Time for construction of square roots      ...    0.360 sec
Total time needed                          ...    0.362 sec

Time for model grid setup =    0.380 sec

------------------------------
INITIAL GUESS: MODEL POTENTIAL
------------------------------
Loading Hartree-Fock densities                     ... done
Calculating cut-offs                               ... done
Initializing the effective Hamiltonian             ... done
Setting up the integral package (SHARK)            ... done
Starting the Coulomb interaction                   ... done (   1.4 sec)
Reading the grid                                   ... done
Mapping shells                                     ... done
Starting the XC term evaluation                    ... done (   0.1 sec)
  promolecular density results
     # of electrons  =     30.000129384
     EX              =    -24.780599550
     EC              =     -0.999167317
     EX+EC           =    -25.779766867
Transforming the Hamiltonian                       ... done (   0.0 sec)
Diagonalizing the Hamiltonian                      ... done (   0.0 sec)
Back transforming the eigenvectors                 ... done (   0.0 sec)
Now organizing SCF variables                       ... done
                      ------------------
                      INITIAL GUESS DONE (   2.5 sec)
                      ------------------
-------------------
DFT GRID GENERATION
-------------------

General Integration Accuracy     IntAcc      ... 4.388
Radial Grid Type                 RadialGrid  ... OptM3 with GC (2021)
Angular Grid (max. ang.)         AngularGrid ... 4 (Lebedev-302)
Angular grid pruning method      GridPruning ... 4 (adaptive)
Weight generation scheme         WeightScheme... Becke
Basis function cutoff            BFCut       ... 1.0000e-11
Integration weight cutoff        WCut        ... 1.0000e-14
Angular grids for H and He will be reduced by one unit
Partially contracted basis set               ... off
Rotationally invariant grid construction     ... off

Total number of grid points                  ...    37371
Total number of batches                      ...      588
Average number of points per batch           ...       63
Average number of grid points per atom       ...     4671
Time for grid setup =    1.170 sec

--------------------
COSX GRID GENERATION
--------------------

GRIDX 1
-------
General Integration Accuracy     IntAcc      ... 3.816
Radial Grid Type                 RadialGrid  ... OptM3 with GC (2021)
Angular Grid (max. ang.)         AngularGrid ... 1 (Lebedev-50)
Angular grid pruning method      GridPruning ... 4 (adaptive)
Weight generation scheme         WeightScheme... Becke
Basis function cutoff            BFCut       ... 1.0000e-11
Integration weight cutoff        WCut        ... 1.0000e-14
Angular grids for H and He will be reduced by one unit
Partially contracted basis set               ... on
Rotationally invariant grid construction     ... off

Total number of grid points                  ...     4795
Total number of batches                      ...       79
Average number of points per batch           ...       60
Average number of grid points per atom       ...      599
UseSFitting                                  ... on

GRIDX 2
-------
General Integration Accuracy     IntAcc      ... 4.020
Radial Grid Type                 RadialGrid  ... OptM3 with GC (2021)
Angular Grid (max. ang.)         AngularGrid ... 2 (Lebedev-110)
Angular grid pruning method      GridPruning ... 4 (adaptive)
Weight generation scheme         WeightScheme... Becke
Basis function cutoff            BFCut       ... 1.0000e-11
Integration weight cutoff        WCut        ... 1.0000e-14
Angular grids for H and He will be reduced by one unit
Partially contracted basis set               ... on
Rotationally invariant grid construction     ... off

Total number of grid points                  ...    10539
Total number of batches                      ...      169
Average number of points per batch           ...       62
Average number of grid points per atom       ...     1317
UseSFitting                                  ... on

GRIDX 3
-------
General Integration Accuracy     IntAcc      ... 4.338
Radial Grid Type                 RadialGrid  ... OptM3 with GC (2021)
Angular Grid (max. ang.)         AngularGrid ... 3 (Lebedev-194)
Angular grid pruning method      GridPruning ... 4 (adaptive)
Weight generation scheme         WeightScheme... Becke
Basis function cutoff            BFCut       ... 1.0000e-11
Integration weight cutoff        WCut        ... 1.0000e-14
Angular grids for H and He will be reduced by one unit
Partially contracted basis set               ... on
Rotationally invariant grid construction     ... off

Total number of grid points                  ...    23262
Total number of batches                      ...      368
Average number of points per batch           ...       63
Average number of grid points per atom       ...     2908
UseSFitting                                  ... on

Time for X-Grid setup             =    7.763 sec

 re-compute Schwartz prescreening matrix in partically contracted basis (1) ...done (   1.759 sec)
--------------
SCF ITERATIONS
--------------
ITER       Energy         Delta-E        Max-DP      RMS-DP      [F,P]     Damp
               ***  Starting incremental Fock matrix formation  ***
  0   -191.6482250283   0.000000000000 0.12581552  0.00457740  0.2551844 0.7000
  1   -191.7147893207  -0.066564292435 0.07919795  0.00299310  0.1030096 0.7000
                               ***Turning on DIIS***
  2   -191.7386703411  -0.023881020370 0.06591054  0.00392525  0.0344770 0.0000
  3   -191.7779794750  -0.039309133840 0.06219344  0.00224943  0.0513812 0.0000
  4   -191.7862818082  -0.008302333206 0.00982625  0.00057264  0.0154918 0.0000
  5   -191.7870540258  -0.000772217625 0.00440050  0.00019044  0.0034141 0.0000
                      *** Initiating the SOSCF procedure ***
                           *** Shutting down DIIS ***
                      *** Re-Reading the Fockian *** 
                      *** Removing any level shift *** 
ITER      Energy       Delta-E        Grad      Rot      Max-DP    RMS-DP
  6   -191.78708852  -0.0000344951  0.000344  0.000344  0.002599  0.000113
               *** Restarting incremental Fock matrix formation ***
  7   -191.78710227  -0.0000137538  0.000154  0.000635  0.000816  0.000027
  8   -191.78710189   0.0000003818  0.000249  0.000392  0.000468  0.000015
  9   -191.78710261  -0.0000007199  0.000023  0.000070  0.000070  0.000004
 10   -191.78710261   0.0000000042  0.000023  0.000032  0.000059  0.000003
                  ***Gradient check signals convergence***
              ***Rediagonalizing the Fockian in SOSCF/NRSCF***

               *****************************************************
               *                     SUCCESS                       *
               *           SCF CONVERGED AFTER  11 CYCLES          *
               *****************************************************

Old exchange energy                            =     -5.039647863 Eh
New exchange energy                            =     -5.039620094 Eh
Exchange energy change after final integration =      0.000027769 Eh
Total energy after final integration           =   -191.787074853 Eh
Final COS-X integration done in                =     1.481 sec

----------------
TOTAL SCF ENERGY
----------------

Total Energy       :         -191.78707485 Eh           -5218.79162 eV

Components:
Nuclear Repulsion  :          107.21421676 Eh            2917.44716 eV
Electronic Energy  :         -299.00129162 Eh           -8136.23878 eV
One Electron Energy:         -471.49622016 Eh          -12830.06442 eV
Two Electron Energy:          172.49492854 Eh            4693.82564 eV
Max COSX asymmetry :            0.00000110 Eh               0.00003 eV

Virial components:
Potential Energy   :         -382.78718553 Eh          -10416.16887 eV
Kinetic Energy     :          191.00011068 Eh            5197.37724 eV
Virial Ratio       :            2.00412023


DFT components:
N(Alpha)           :       15.000001457864 electrons
N(Beta)            :       15.000001457864 electrons
N(Total)           :       30.000002915729 electrons
E(X)               :      -20.026268431480 Eh       
E(C)               :       -1.186713789155 Eh       
E(XC)              :      -21.212982220635 Eh       
DFET-embed. en.    :        0.000000000000 Eh       

---------------
SCF CONVERGENCE
---------------

  Last Energy change         ...   -1.3802e-08  Tolerance :   1.0000e-08
  Last MAX-Density change    ...    1.7764e-15  Tolerance :   1.0000e-07
  Last RMS-Density change    ...    5.9014e-17  Tolerance :   5.0000e-09
  Last Orbital Gradient      ...    1.3983e-06  Tolerance :   1.0000e-05
  Last Orbital Rotation      ...    3.9107e-06  Tolerance :   1.0000e-05

             **** THE GBW FILE WAS UPDATED (acrolien.284.gbw) ****
             **** DENSITY acrolien.284.scfp WAS UPDATED ****
             **** ENERGY FILE WAS UPDATED (acrolien.284.en.tmp) ****
             **** THE GBW FILE WAS UPDATED (acrolien.284.gbw) ****
             **** DENSITY acrolien.284.scfp WAS UPDATED ****
----------------
ORBITAL ENERGIES
----------------

  NO   OCC          E(Eh)            E(eV) 
   0   2.0000     -19.137708      -520.7635 
   1   2.0000     -10.270743      -279.4811 
   2   2.0000     -10.212997      -277.9098 
   3   2.0000     -10.197489      -277.4878 
   4   2.0000      -1.078993       -29.3609 
   5   2.0000      -0.815110       -22.1803 
   6   2.0000      -0.653110       -17.7720 
   7   2.0000      -0.529055       -14.3963 
   8   2.0000      -0.512764       -13.9530 
   9   2.0000      -0.462432       -12.5834 
  10   2.0000      -0.427167       -11.6238 
  11   2.0000      -0.419988       -11.4285 
  12   2.0000      -0.372655       -10.1404 
  13   2.0000      -0.301977        -8.2172 
  14   2.0000      -0.250515        -6.8169 
  15   0.0000      -0.059152        -1.6096 
  16   0.0000       0.057195         1.5564 
  17   0.0000       0.082262         2.2385 
  18   0.0000       0.085771         2.3339 
  19   0.0000       0.125121         3.4047 
  20   0.0000       0.141915         3.8617 
  21   0.0000       0.264275         7.1913 
  22   0.0000       0.301826         8.2131 
  23   0.0000       0.308166         8.3856 
  24   0.0000       0.433949        11.8084 
  25   0.0000       0.441966        12.0265 
  26   0.0000       0.442726        12.0472 
  27   0.0000       0.504806        13.7365 
  28   0.0000       0.513688        13.9782 
  29   0.0000       0.530972        14.4485 
  30   0.0000       0.568286        15.4638 
  31   0.0000       0.590034        16.0556 
  32   0.0000       0.652776        17.7629 
  33   0.0000       0.678899        18.4738 
  34   0.0000       0.746032        20.3006 
  35   0.0000       0.758522        20.6404 
  36   0.0000       0.794062        21.6075 
  37   0.0000       0.859625        23.3916 
  38   0.0000       0.908596        24.7242 
  39   0.0000       0.958924        26.0937 
  40   0.0000       0.988170        26.8895 
  41   0.0000       0.996478        27.1156 
  42   0.0000       1.036675        28.2094 
  43   0.0000       1.058583        28.8055 
  44   0.0000       1.092728        29.7346 
  45   0.0000       1.143593        31.1187 
  46   0.0000       1.216096        33.0917 
  47   0.0000       1.311314        35.6827 
  48   0.0000       1.471589        40.0440 
  49   0.0000       1.480690        40.2916 
  50   0.0000       1.494119        40.6570 
  51   0.0000       1.530494        41.6469 
  52   0.0000       1.592371        43.3306 
  53   0.0000       1.604496        43.6606 
  54   0.0000       1.631127        44.3852 
  55   0.0000       1.664801        45.3015 
  56   0.0000       1.716412        46.7059 
  57   0.0000       1.746609        47.5276 
  58   0.0000       1.790310        48.7168 
  59   0.0000       1.863299        50.7029 
  60   0.0000       1.931228        52.5514 
  61   0.0000       1.966825        53.5200 
  62   0.0000       2.043520        55.6070 
  63   0.0000       2.079951        56.5983 
  64   0.0000       2.125366        57.8341 
  65   0.0000       2.268280        61.7230 
  66   0.0000       2.305341        62.7315 
  67   0.0000       2.402464        65.3744 
  68   0.0000       2.547162        69.3118 
  69   0.0000       2.676333        72.8267 
  70   0.0000       2.701711        73.5173 
  71   0.0000       2.837732        77.2186 
  72   0.0000       3.066764        83.4509 
  73   0.0000       3.134888        85.3047 
  74   0.0000       3.475368        94.5696 
  75   0.0000       3.537104        96.2495 

                    ********************************
                    * MULLIKEN POPULATION ANALYSIS *
                    ********************************

-----------------------
MULLIKEN ATOMIC CHARGES
-----------------------
   0 C :    0.132386
   1 O :   -0.135436
   2 C :   -0.086833
   3 C :    0.063503
   4 H :   -0.050961
   5 H :   -0.004575
   6 H :    0.041733
   7 H :    0.040182
Sum of atomic charges:    0.0000000

--------------------------------
MULLIKEN REDUCED ORBITAL CHARGES
--------------------------------
  0 C s       :     3.108623  s :     3.108623
      pz      :     0.766291  p :     2.599317
      px      :     0.917390
      py      :     0.915636
      dz2     :     0.005949  d :     0.159673
      dxz     :     0.006325
      dyz     :     0.033072
      dx2y2   :     0.036435
      dxy     :     0.077893
  1 O s       :     3.704595  s :     3.704595
      pz      :     1.269033  p :     4.409217
      px      :     1.753113
      py      :     1.387070
      dz2     :     0.002353  d :     0.021624
      dxz     :     0.000052
      dyz     :     0.006713
      dx2y2   :     0.007319
      dxy     :     0.005187
  2 C s       :     3.133117  s :     3.133117
      pz      :     0.995387  p :     2.889407
      px      :     0.969345
      py      :     0.924675
      dz2     :     0.002873  d :     0.064309
      dxz     :     0.008856
      dyz     :     0.004466
      dx2y2   :     0.023548
      dxy     :     0.024566
  3 C s       :     3.068159  s :     3.068159
      pz      :     0.878665  p :     2.820129
      px      :     0.975774
      py      :     0.965690
      dz2     :     0.000876  d :     0.048209
      dxz     :     0.009540
      dyz     :     0.001816
      dx2y2   :     0.020307
      dxy     :     0.015671
  4 H s       :     1.029471  s :     1.029471
      pz      :     0.002210  p :     0.021489
      px      :     0.014542
      py      :     0.004737
  5 H s       :     0.976099  s :     0.976099
      pz      :     0.005804  p :     0.028476
      px      :     0.004840
      py      :     0.017832
  6 H s       :     0.929500  s :     0.929500
      pz      :     0.004465  p :     0.028766
      px      :     0.005281
      py      :     0.019020
  7 H s       :     0.932007  s :     0.932007
      pz      :     0.004480  p :     0.027811
      px      :     0.015239
      py      :     0.008092


                     *******************************
                     * LOEWDIN POPULATION ANALYSIS *
                     *******************************

----------------------
LOEWDIN ATOMIC CHARGES
----------------------
   0 C :   -0.078545
   1 O :    0.051929
   2 C :   -0.096377
   3 C :    0.019873
   4 H :   -0.018863
   5 H :    0.038315
   6 H :    0.041786
   7 H :    0.041882

-------------------------------
LOEWDIN REDUCED ORBITAL CHARGES
-------------------------------
  0 C s       :     2.861449  s :     2.861449
      pz      :     0.752889  p :     2.789574
      px      :     1.005214
      py      :     1.031472
      dz2     :     0.023153  d :     0.427522
      dxz     :     0.014197
      dyz     :     0.068958
      dx2y2   :     0.099164
      dxy     :     0.222050
  1 O s       :     3.448461  s :     3.448461
      pz      :     1.244270  p :     4.461011
      px      :     1.704730
      py      :     1.512011
      dz2     :     0.005143  d :     0.038598
      dxz     :     0.000062
      dyz     :     0.007946
      dx2y2   :     0.015777
      dxy     :     0.009671
  2 C s       :     2.818906  s :     2.818906
      pz      :     0.949922  p :     3.060297
      px      :     1.092074
      py      :     1.018302
      dz2     :     0.016791  d :     0.217174
      dxz     :     0.024464
      dyz     :     0.009624
      dx2y2   :     0.082155
      dxy     :     0.084139
  3 C s       :     2.844219  s :     2.844219
      pz      :     0.855000  p :     2.969790
      px      :     1.068671
      py      :     1.046118
      dz2     :     0.011253  d :     0.166118
      dxz     :     0.020597
      dyz     :     0.004305
      dx2y2   :     0.073907
      dxy     :     0.056057
  4 H s       :     0.959825  s :     0.959825
      pz      :     0.006874  p :     0.059037
      px      :     0.037483
      py      :     0.014680
  5 H s       :     0.885040  s :     0.885040
      pz      :     0.016867  p :     0.076645
      px      :     0.014422
      py      :     0.045357
  6 H s       :     0.882073  s :     0.882073
      pz      :     0.013324  p :     0.076140
      px      :     0.013319
      py      :     0.049498
  7 H s       :     0.887352  s :     0.887352
      pz      :     0.012651  p :     0.070766
      px      :     0.036376
      py      :     0.021738


                      *****************************
                      * MAYER POPULATION ANALYSIS *
                      *****************************

  NA   - Mulliken gross atomic population
  ZA   - Total nuclear charge
  QA   - Mulliken gross atomic charge
  VA   - Mayer's total valence
  BVA  - Mayer's bonded valence
  FA   - Mayer's free valence

  ATOM       NA         ZA         QA         VA         BVA        FA
  0 C      5.8676     6.0000     0.1324     4.2515     4.2515     0.0000
  1 O      8.1354     8.0000    -0.1354     2.4256     2.4256     0.0000
  2 C      6.0868     6.0000    -0.0868     4.0249     4.0249     0.0000
  3 C      5.9365     6.0000     0.0635     3.9415     3.9415    -0.0000
  4 H      1.0510     1.0000    -0.0510     0.9599     0.9599    -0.0000
  5 H      1.0046     1.0000    -0.0046     0.9791     0.9791    -0.0000
  6 H      0.9583     1.0000     0.0417     1.0005     1.0005     0.0000
  7 H      0.9598     1.0000     0.0402     0.9696     0.9696    -0.0000

  Mayer bond orders larger than 0.100000
B(  0-C ,  1-O ) :   2.2700 B(  0-C ,  2-C ) :   1.0521 B(  0-C ,  4-H ) :   0.8922 
B(  2-C ,  3-C ) :   1.9746 B(  2-C ,  5-H ) :   0.9466 B(  3-C ,  6-H ) :   0.9200 
B(  3-C ,  7-H ) :   0.9404 

-------
TIMINGS
-------

Total SCF time: 0 days 0 hours 3 min 1 sec 

Total time                  ....     181.928 sec
Sum of individual times     ....     141.673 sec  ( 77.9%)

Fock matrix formation       ....     127.961 sec  ( 70.3%)
  Split-RI-J                ....       2.301 sec  (  1.8% of F)
  Chain of spheres X        ....       7.337 sec  (  5.7% of F)
  XC integration            ....      40.212 sec  ( 31.4% of F)
    Basis function eval.    ....       1.471 sec  (  3.7% of XC)
    Density eval.           ....       0.595 sec  (  1.5% of XC)
    XC-Functional eval.     ....       0.522 sec  (  1.3% of XC)
    XC-Potential eval.      ....       0.566 sec  (  1.4% of XC)
Diagonalization             ....       0.008 sec  (  0.0%)
Density matrix formation    ....       0.001 sec  (  0.0%)
Population analysis         ....       0.004 sec  (  0.0%)
Initial guess               ....       2.137 sec  (  1.2%)
Orbital Transformation      ....       0.000 sec  (  0.0%)
Orbital Orthonormalization  ....       0.000 sec  (  0.0%)
DIIS solution               ....       0.019 sec  (  0.0%)
SOSCF solution              ....       2.230 sec  (  1.2%)
Grid generation             ....       9.313 sec  (  5.1%)

Maximum memory used throughout the entire SCF-calculation: 51.7 MB
------------------------------------------------------------------------------
                        ORCA TD-DFT/TDA CALCULATION
------------------------------------------------------------------------------

Input orbitals are from        ... acrolien.284.gbw
CI-vector output               ... acrolien.284.cis
Tamm-Dancoff approximation     ... operative
CIS-Integral strategy          ... AO-integrals
Integral handling              ... AO integral Direct
Max. core memory used          ... 512 MB
Reference state                ... RHF
Generation of triplets         ... off
Follow IRoot                   ... off
Number of operators            ... 1
Orbital ranges used for CIS calculation:
 Operator 0:  Orbitals   4... 14  to  15... 75
XAS localization array:
 Operator 0:  Orbitals  -1... -1

-------------------
XC-INTEGRATION GRID
-------------------

General Integration Accuracy     IntAcc      ... 3.467
Radial Grid Type                 RadialGrid  ... OptM3 with GC (2021)
Angular Grid (max. ang.)         AngularGrid ... 1 (Lebedev-50)
Angular grid pruning method      GridPruning ... 4 (adaptive)
Weight generation scheme         WeightScheme... Becke
Basis function cutoff            BFCut       ... 1.0000e-11
Integration weight cutoff        WCut        ... 1.0000e-14
Angular grids for H and He will be reduced by one unit
Partially contracted basis set               ... off
Rotationally invariant grid construction     ... off

Total number of grid points                  ...     5493
Total number of batches                      ...       91
Average number of points per batch           ...       60
Average number of grid points per atom       ...      687

---------------------
COSX-INTEGRATION GRID
---------------------

General Integration Accuracy     IntAcc      ... 3.067
Radial Grid Type                 RadialGrid  ... OptM3 with GC (2021)
Angular Grid (max. ang.)         AngularGrid ... 1 (Lebedev-50)
Angular grid pruning method      GridPruning ... 4 (adaptive)
Weight generation scheme         WeightScheme... Becke
Basis function cutoff            BFCut       ... 1.0000e-11
Integration weight cutoff        WCut        ... 1.0000e-14
Angular grids for H and He will be reduced by one unit
Partially contracted basis set               ... on
Rotationally invariant grid construction     ... off

Total number of grid points                  ...     2504
Total number of batches                      ...       45
Average number of points per batch           ...       55
Average number of grid points per atom       ...      313

---------------
TD-DFT XC SETUP
---------------

DFT calculation                         ... on
Name of the grid file                   ... acrolien.284.grid_cis.tmp
Exchange functional (TD-DFT)            ... B88
   X-Alpha parameter    XAlpha (TD-DFT) ...  0.666667
   Becke's b parameter  XBeta (TD-DFT)  ...  0.004200
Correlation functional (TD-DFT)         ... LYP
 LDA part of GGA corr.  LDAOpt (TD-DFT) ... VWN-5
Hybrid DFT                              ... on
   Exchange mixing (TD-DFT)             ...  0.200
   GGA exch. scaling (TD-DFT)           ...  0.720
   GGA corr. scaling (TD-DFT)           ...  0.810

Building densities             ... done
Calculating rho(r) on the grid ... done
Building xc-kernel on the grid ... done
                    *** TD-DFT CALCULATION INITIALIZED ***

------------------------
DAVIDSON-DIAGONALIZATION
------------------------

Dimension of the eigenvalue problem            ...    671
Number of roots to be determined               ...      1
Maximum size of the expansion space            ...     10
Maximum number of iterations                   ...    100
Convergence tolerance for the residual         ...    2.500e-07
Convergence tolerance for the energies         ...    2.500e-07
Orthogonality tolerance                        ...    1.000e-14
Level Shift                                    ...    0.000e+00
Constructing the preconditioner                ... o.k.
Building the initial guess                     ... o.k.
Number of trial vectors determined             ...     10


                       ****Iteration    0****

   Memory handling for direct AO based CIS:
   Memory per vector needed      ...     1 MB
   Memory needed                 ...     0 MB
   Memory available              ...   512 MB
   Number of vectors per batch   ...   512
   Number of batches             ...     1
   Time for densities:            0.000
   Time for RI-J (Direct):        0.071
   Time for K (COSX):             0.235
   Time for XC-Integration:       0.082
   Time for Sigma-Completion:     0.000
   Size of expansion space: 3
   Lowest Energy          :     0.136728948980
   Maximum Energy change  :     0.136728948980 (vector 0)
   Maximum residual norm  :     0.001219106381

                       ****Iteration    1****
   Time for densities:            0.000
   Time for RI-J (Direct):        0.054
   Time for K (COSX):             0.195
   Time for XC-Integration:       0.042
   Time for Sigma-Completion:     0.000
   Size of expansion space: 4
   Lowest Energy          :     0.134415708472
   Maximum Energy change  :     0.002313240508 (vector 0)
   Maximum residual norm  :     0.000103151743

                       ****Iteration    2****
   Time for densities:            0.000
   Time for RI-J (Direct):        0.055
   Time for K (COSX):             1.497
   Time for XC-Integration:       0.043
   Time for Sigma-Completion:     0.000
   Size of expansion space: 5
   Lowest Energy          :     0.134300056864
   Maximum Energy change  :     0.000115651608 (vector 0)
   Maximum residual norm  :     0.000008716844

                       ****Iteration    3****
   Time for densities:            0.000
   Time for RI-J (Direct):        0.056
   Time for K (COSX):             0.528
   Time for XC-Integration:       0.043
   Time for Sigma-Completion:     0.000
   Size of expansion space: 6
   Lowest Energy          :     0.134292548113
   Maximum Energy change  :     0.000007508751 (vector 0)
   Maximum residual norm  :     0.000000930793

                       ****Iteration    4****
   Time for densities:            0.000
   Time for RI-J (Direct):        0.056
   Time for K (COSX):             0.197
   Time for XC-Integration:       0.043
   Time for Sigma-Completion:     0.000
   Size of expansion space: 7
   Lowest Energy          :     0.134291563233
   Maximum Energy change  :     0.000000984880 (vector 0)
   Maximum residual norm  :     0.000000056372

      *** CONVERGENCE OF RESIDUAL NORM REACHED ***

Storing the converged CI vectors               ... acrolien.284.cis1

                 *** DAVIDSON DONE ***

Total time for solving the CIS problem:    10.217sec

------------------------------------
TD-DFT/TDA EXCITED STATES (SINGLETS)
------------------------------------

the weight of the individual excitations are printed if larger than 1.0e-02

STATE  1:  E=   0.134292 au      3.654 eV    29473.6 cm**-1 <S**2> =   0.000000
    14a ->  15a  :     0.985124 (c=  0.99253419)


-----------------------------
TD-DFT/TDA-EXCITATION SPECTRA
-----------------------------

Center of mass = (  0.5760, -0.9087, -0.0001)
Calculating the Dipole integrals                  ... done
Transforming integrals                            ... done
Calculating the Linear Momentum integrals         ... done
Transforming integrals                            ... done
Calculating angular momentum integrals            ... done
Transforming integrals                            ... done

-----------------------------------------------------------------------------
         ABSORPTION SPECTRUM VIA TRANSITION ELECTRIC DIPOLE MOMENTS
-----------------------------------------------------------------------------
State   Energy    Wavelength  fosc         T2        TX        TY        TZ  
        (cm-1)      (nm)                 (au**2)    (au)      (au)      (au) 
-----------------------------------------------------------------------------
   1   29473.6    339.3   0.000349175   0.00390  -0.02003   0.01512  -0.05719

-----------------------------------------------------------------------------
         ABSORPTION SPECTRUM VIA TRANSITION VELOCITY DIPOLE MOMENTS
-----------------------------------------------------------------------------
State   Energy    Wavelength   fosc        P2         PX        PY        PZ  
        (cm-1)      (nm)                 (au**2)     (au)      (au)      (au) 
-----------------------------------------------------------------------------
   1   29473.6    339.3   0.000955912   0.00019   0.00034   0.00097   0.01384

-------------------------------------------------------------------
                             CD SPECTRUM
-------------------------------------------------------------------
State  Energy     Wavelength     R         MX        MY        MZ   
       (cm-1)       (nm)     (1e40*cgs)   (au)      (au)      (au)  
-------------------------------------------------------------------
   1   29473.6    339.3     -1.37663  -0.08384  -0.34540  -0.01088

-------------------------------------------------------------------
         CD SPECTRUM VIA TRANSITION VELOCITY DIPOLE MOMENTS        
-------------------------------------------------------------------
State  Energy     Wavelength     R         MX        MY        MZ   
       (cm-1)       (nm)     (1e40*cgs)   (au)      (au)      (au)  
-------------------------------------------------------------------
   1   29473.6    339.3     -1.80695  -0.08384  -0.34540  -0.01088

Total run time:       14.539 sec

           *** ORCA-CIS/TD-DFT FINISHED WITHOUT ERROR ***

Maximum memory used throughout the entire CIS-calculation: 48.6 MB

-----------------------
CIS/TD-DFT TOTAL ENERGY
-----------------------

    E(SCF)  =   -191.787074853 Eh
    DE(CIS) =      0.134291563 Eh (Root  1)
    ----------------------------- ---------
    E(tot)  =   -191.652783290 Eh


-------------------------   --------------------
FINAL SINGLE POINT ENERGY      -191.652783289936
-------------------------   --------------------


                            ***************************************
                            *     ORCA property calculations      *
                            ***************************************

                                    ---------------------
                                    Active property flags
                                    ---------------------
   (+) Dipole Moment


------------------------------------------------------------------------------
                       ORCA ELECTRIC PROPERTIES CALCULATION
------------------------------------------------------------------------------

Dipole Moment Calculation                       ... on
Quadrupole Moment Calculation                   ... off
Polarizability Calculation                      ... off
GBWName                                         ... acrolien.284.gbw
Electron density                                ... acrolien.284.scfp
The origin for moment calculation is the CENTER OF MASS  = ( 0.576008, -0.908661 -0.000146)

-------------
DIPOLE MOMENT
-------------
                                X             Y             Z
Electronic contribution:     -1.62866      -1.74589       0.11607
Nuclear contribution   :      2.15210       2.49778      -0.13205
                        -----------------------------------------
Total Dipole Moment    :      0.52344       0.75189      -0.01597
                        -----------------------------------------
Magnitude (a.u.)       :      0.91629
Magnitude (Debye)      :      2.32902



--------------------
Rotational spectrum 
--------------------
 
Rotational constants in cm-1:     0.823268     0.216922     0.171858 
Rotational constants in MHz : 24680.960446  6503.143468  5152.176930 

 Dipole components along the rotational axes: 
x,y,z [a.u.] :     0.842098    -0.360831    -0.016039 
x,y,z [Debye]:     2.140443    -0.917159    -0.040767 

 

Timings for individual modules:

Sum of individual times         ...      200.209 sec (=   3.337 min)
GTO integral calculation        ...        3.723 sec (=   0.062 min)   1.9 %
SCF iterations                  ...      181.938 sec (=   3.032 min)  90.9 %
CIS module                      ...       14.547 sec (=   0.242 min)   7.3 %
                             ****ORCA TERMINATED NORMALLY****
TOTAL RUN TIME: 0 days 0 hours 3 minutes 23 seconds 371 msec
