
                                 *****************
                                 * O   R   C   A *
                                 *****************

                                            #,                                       
                                            ###                                      
                                            ####                                     
                                            #####                                    
                                            ######                                   
                                           ########,                                 
                                     ,,################,,,,,                         
                               ,,#################################,,                 
                          ,,##########################################,,             
                       ,#########################################, ''#####,          
                    ,#############################################,,   '####,        
                  ,##################################################,,,,####,       
                ,###########''''           ''''###############################       
              ,#####''   ,,,,##########,,,,          '''####'''          '####       
            ,##' ,,,,###########################,,,                        '##       
           ' ,,###''''                  '''############,,,                           
         ,,##''                                '''############,,,,        ,,,,,,###''
      ,#''                                            '''#######################'''  
     '                                                          ''''####''''         
             ,#######,   #######,   ,#######,      ##                                
            ,#'     '#,  ##    ##  ,#'     '#,    #''#        ######   ,####,        
            ##       ##  ##   ,#'  ##            #'  '#       #        #'  '#        
            ##       ##  #######   ##           ,######,      #####,   #    #        
            '#,     ,#'  ##    ##  '#,     ,#' ,#      #,         ##   #,  ,#        
             '#######'   ##     ##  '#######'  #'      '#     #####' # '####'        



                  #######################################################
                  #                        -***-                        #
                  #          Department of theory and spectroscopy      #
                  #    Directorship and core code : Frank Neese         #
                  #        Max Planck Institute fuer Kohlenforschung    #
                  #                Kaiser Wilhelm Platz 1               #
                  #                 D-45470 Muelheim/Ruhr               #
                  #                      Germany                        #
                  #                                                     #
                  #                  All rights reserved                #
                  #                        -***-                        #
                  #######################################################


                         Program Version 5.0.3 -  RELEASE  -


 With contributions from (in alphabetic order):
   Daniel Aravena         : Magnetic Suceptibility
   Michael Atanasov       : Ab Initio Ligand Field Theory (pilot matlab implementation)
   Alexander A. Auer      : GIAO ZORA, VPT2 properties, NMR spectrum
   Ute Becker             : Parallelization
   Giovanni Bistoni       : ED, misc. LED, open-shell LED, HFLD
   Martin Brehm           : Molecular dynamics
   Dmytro Bykov           : SCF Hessian
   Vijay G. Chilkuri      : MRCI spin determinant printing, contributions to CSF-ICE
   Dipayan Datta          : RHF DLPNO-CCSD density
   Achintya Kumar Dutta   : EOM-CC, STEOM-CC
   Dmitry Ganyushin       : Spin-Orbit,Spin-Spin,Magnetic field MRCI
   Miquel Garcia          : C-PCM and meta-GGA Hessian, CC/C-PCM, Gaussian charge scheme
   Yang Guo               : DLPNO-NEVPT2, F12-NEVPT2, CIM, IAO-localization
   Andreas Hansen         : Spin unrestricted coupled pair/coupled cluster methods
   Benjamin Helmich-Paris : MC-RPA, TRAH-SCF, COSX integrals
   Lee Huntington         : MR-EOM, pCC
   Robert Izsak           : Overlap fitted RIJCOSX, COSX-SCS-MP3, EOM
   Marcus Kettner         : VPT2
   Christian Kollmar      : KDIIS, OOCD, Brueckner-CCSD(T), CCSD density, CASPT2, CASPT2-K
   Simone Kossmann        : Meta GGA functionals, TD-DFT gradient, OOMP2, MP2 Hessian
   Martin Krupicka        : Initial AUTO-CI
   Lucas Lang             : DCDCAS
   Marvin Lechner         : AUTO-CI (C++ implementation), FIC-MRCC
   Dagmar Lenk            : GEPOL surface, SMD
   Dimitrios Liakos       : Extrapolation schemes; Compound Job, initial MDCI parallelization
   Dimitrios Manganas     : Further ROCIS development; embedding schemes
   Dimitrios Pantazis     : SARC Basis sets
   Anastasios Papadopoulos: AUTO-CI, single reference methods and gradients
   Taras Petrenko         : DFT Hessian,TD-DFT gradient, ASA, ECA, R-Raman, ABS, FL, XAS/XES, NRVS
   Peter Pinski           : DLPNO-MP2, DLPNO-MP2 Gradient
   Christoph Reimann      : Effective Core Potentials
   Marius Retegan         : Local ZFS, SOC
   Christoph Riplinger    : Optimizer, TS searches, QM/MM, DLPNO-CCSD(T), (RO)-DLPNO pert. Triples
   Tobias Risthaus        : Range-separated hybrids, TD-DFT gradient, RPA, STAB
   Michael Roemelt        : Original ROCIS implementation
   Masaaki Saitow         : Open-shell DLPNO-CCSD energy and density
   Barbara Sandhoefer     : DKH picture change effects
   Avijit Sen             : IP-ROCIS
   Kantharuban Sivalingam : CASSCF convergence, NEVPT2, FIC-MRCI
   Bernardo de Souza      : ESD, SOC TD-DFT
   Georgi Stoychev        : AutoAux, RI-MP2 NMR, DLPNO-MP2 response
   Willem Van den Heuvel  : Paramagnetic NMR
   Boris Wezisla          : Elementary symmetry handling
   Frank Wennmohs         : Technical directorship


 We gratefully acknowledge several colleagues who have allowed us to
 interface, adapt or use parts of their codes:
   Stefan Grimme, W. Hujo, H. Kruse, P. Pracht,  : VdW corrections, initial TS optimization,
                  C. Bannwarth, S. Ehlert          DFT functionals, gCP, sTDA/sTD-DF
   Ed Valeev, F. Pavosevic, A. Kumar             : LibInt (2-el integral package), F12 methods
   Garnet Chan, S. Sharma, J. Yang, R. Olivares  : DMRG
   Ulf Ekstrom                                   : XCFun DFT Library
   Mihaly Kallay                                 : mrcc  (arbitrary order and MRCC methods)
   Jiri Pittner, Ondrej Demel                    : Mk-CCSD
   Frank Weinhold                                : gennbo (NPA and NBO analysis)
   Christopher J. Cramer and Donald G. Truhlar   : smd solvation model
   Lars Goerigk                                  : TD-DFT with DH, B97 family of functionals
   V. Asgeirsson, H. Jonsson                     : NEB implementation
   FAccTs GmbH                                   : IRC, NEB, NEB-TS, DLPNO-Multilevel, CI-OPT
                                                   MM, QMMM, 2- and 3-layer-ONIOM, Crystal-QMMM,
                                                   LR-CPCM, SF, NACMEs, symmetry and pop. for TD-DFT,
                                                   nearIR, NL-DFT gradient (VV10), updates on ESD,
                                                   ML-optimized integration grids
   S Lehtola, MJT Oliveira, MAL Marques          : LibXC Library
   Liviu Ungur et al                             : ANISO software


 Your calculation uses the libint2 library for the computation of 2-el integrals
 For citations please refer to: http://libint.valeyev.net

 Your ORCA version has been built with support for libXC version: 5.1.0
 For citations please refer to: https://tddft.org/programs/libxc/

 This ORCA versions uses:
   CBLAS   interface :  Fast vector & matrix operations
   LAPACKE interface :  Fast linear algebra routines
   SCALAPACK package :  Parallel linear algebra routines
   Shared memory     :  Shared parallel matrices
   BLAS/LAPACK       :  OpenBLAS 0.3.15  USE64BITINT DYNAMIC_ARCH NO_AFFINITY Haswell SINGLE_THREADED
        Core in use  :  Haswell
   Copyright (c) 2011-2014, The OpenBLAS Project


================================================================================

----- Orbital basis set information -----
Your calculation utilizes the basis: cc-pVDZ 
       H, B-Ne : Obtained from the ccRepo (grant-hill.group.shef.ac.uk/ccrepo) Feb. 2017
                 T. H. Dunning, Jr., J. Chem. Phys. 90, 1007 (1989)
            He : Obtained from the ccRepo (grant-hill.group.shef.ac.uk/ccrepo) Feb. 2017
                 D. E. Woon, T. H. Dunning, Jr., J. Chem. Phys. 100, 2975 (1994)
  Li-Be, Na-Mg : Obtained from the ccRepo (grant-hill.group.shef.ac.uk/ccrepo) Feb. 2017
                 B. P. Prascher, D. E. Woon, K. A. Peterson, T. H. Dunning, Jr., A. K. Wilson, Theor. Chem. Acc. 128, 69 (2011)
         Al-Ar : Obtained from the ccRepo (grant-hill.group.shef.ac.uk/ccrepo) Feb. 2017
                 D. E. Woon, T. H. Dunning, Jr., J. Chem. Phys. 98, 1358 (1993)
            Ca : Obtained from the Peterson Research Group Website (tyr0.chem.wsu.edu/~kipeters) Feb. 2017
                 J. Koput, K. A. Peterson, J. Phys. Chem. 106, 9595 (2002)
         Sc-Zn : Obtained from the ccRepo (grant-hill.group.shef.ac.uk/ccrepo) Feb. 2017
                 N. B. Balabanov, K. A. Peterson, J. Chem. Phys. 123, 064107 (2005)
                 N. B. Balabanov, K. A. Peterson, J. Chem. Phys. 125, 074110 (2006)
         Ga-Kr : Obtained from the ccRepo (grant-hill.group.shef.ac.uk/ccrepo) Feb. 2017
                 A. K. Wilson, D. E. Woon, K. A. Peterson, T. H. Dunning, Jr., J. Chem. Phys. 110, 7667 (1999)

----- AuxJ basis set information -----
Your calculation utilizes the auxiliary basis: def2/J
   F. Weigend, Phys. Chem. Chem. Phys. 8, 1057 (2006).

================================================================================
                                        WARNINGS
                       Please study these warnings very carefully!
================================================================================

INFO   : Checking CIS options ...

INFO   : the flag for use of the SHARK integral package has been found!

================================================================================
                                       INPUT FILE
================================================================================
NAME = acrolien.11.com
|  1> ! B3LYP cc-pVDZ
|  2> !TightSCF
|  3> %scf
|  4>  ConvForced true
|  5>  convergence tight
|  6>  MaxIter 500
|  7> end
|  8>  
|  9> %tddft 
| 10>  nroots 1
| 11> end
| 12> 
| 13> # 	12345
| 14> * xyz 0 1
| 15> 		C   -1.221629  -0.362283  -0.086000
| 16> 		O   -1.191759  -1.469029  -0.234327
| 17> 		C    0.064518   0.535909  -0.016663
| 18> 		C    1.257956  -0.012860   0.028496
| 19> 		H   -2.183690   0.249441   0.137442
| 20> 		H   -0.127871   1.539865   0.036443
| 21> 		H    1.466633  -1.072346   0.024068
| 22> 		H    1.898410   0.634037   0.109607
| 23> *
| 24> 
| 25>                          ****END OF INPUT****
================================================================================

                       ****************************
                       * Single Point Calculation *
                       ****************************

---------------------------------
CARTESIAN COORDINATES (ANGSTROEM)
---------------------------------
  C     -1.221629   -0.362283   -0.086000
  O     -1.191759   -1.469029   -0.234327
  C      0.064518    0.535909   -0.016663
  C      1.257956   -0.012860    0.028496
  H     -2.183690    0.249441    0.137442
  H     -0.127871    1.539865    0.036443
  H      1.466633   -1.072346    0.024068
  H      1.898410    0.634037    0.109607

----------------------------
CARTESIAN COORDINATES (A.U.)
----------------------------
  NO LB      ZA    FRAG     MASS         X           Y           Z
   0 C     6.0000    0    12.011   -2.308544   -0.684616   -0.162516
   1 O     8.0000    0    15.999   -2.252098   -2.776062   -0.442814
   2 C     6.0000    0    12.011    0.121921    1.012721   -0.031489
   3 C     6.0000    0    12.011    2.377192   -0.024302    0.053850
   4 H     1.0000    0     1.008   -4.126576    0.471375    0.259728
   5 H     1.0000    0     1.008   -0.241641    2.909923    0.068867
   6 H     1.0000    0     1.008    2.771535   -2.026440    0.045482
   7 H     1.0000    0     1.008    3.587475    1.198156    0.207127

--------------------------------
INTERNAL COORDINATES (ANGSTROEM)
--------------------------------
 C      0   0   0     0.000000000000     0.00000000     0.00000000
 O      1   0   0     1.117040654741     0.00000000     0.00000000
 C      1   2   0     1.570264498116   123.41437612     0.00000000
 C      3   1   2     1.314336718838   120.42533430   351.72807025
 H      1   2   3     1.161763292268   124.70683814   186.22977787
 H      3   1   2     1.023602180778   114.16510167   174.65155132
 H      4   3   1     1.079850120021   125.80166958   359.93164365
 H      4   3   1     0.913912495289   110.11055782   182.92327415

---------------------------
INTERNAL COORDINATES (A.U.)
---------------------------
 C      0   0   0     0.000000000000     0.00000000     0.00000000
 O      1   0   0     2.110900917917     0.00000000     0.00000000
 C      1   2   0     2.967369859258   123.41437612     0.00000000
 C      3   1   2     2.483736446361   120.42533430   351.72807025
 H      1   2   3     2.195414454829   124.70683814   186.22977787
 H      3   1   2     1.934327791755   114.16510167   174.65155132
 H      4   3   1     2.040620992521   125.80166958   359.93164365
 H      4   3   1     1.727044326465   110.11055782   182.92327415

---------------------
BASIS SET INFORMATION
---------------------
There are 3 groups of distinct atoms

 Group   1 Type C   : 17s4p1d contracted to 3s2p1d pattern {881/31/1}
 Group   2 Type O   : 17s4p1d contracted to 3s2p1d pattern {881/31/1}
 Group   3 Type H   : 4s1p contracted to 2s1p pattern {31/1}

Atom   0C    basis set group =>   1
Atom   1O    basis set group =>   2
Atom   2C    basis set group =>   1
Atom   3C    basis set group =>   1
Atom   4H    basis set group =>   3
Atom   5H    basis set group =>   3
Atom   6H    basis set group =>   3
Atom   7H    basis set group =>   3
---------------------------------
AUXILIARY/J BASIS SET INFORMATION
---------------------------------
There are 3 groups of distinct atoms

 Group   1 Type C   : 12s5p4d2f1g contracted to 6s4p3d1f1g pattern {711111/2111/211/2/1}
 Group   2 Type O   : 12s5p4d2f1g contracted to 6s4p3d1f1g pattern {711111/2111/211/2/1}
 Group   3 Type H   : 5s2p1d contracted to 3s1p1d pattern {311/2/1}

Atom   0C    basis set group =>   1
Atom   1O    basis set group =>   2
Atom   2C    basis set group =>   1
Atom   3C    basis set group =>   1
Atom   4H    basis set group =>   3
Atom   5H    basis set group =>   3
Atom   6H    basis set group =>   3
Atom   7H    basis set group =>   3
------------------------------------------------------------------------------
                           ORCA GTO INTEGRAL CALCULATION
                           -- RI-GTO INTEGRALS CHOSEN --
------------------------------------------------------------------------------
------------------------------------------------------------------------------
                   ___                                                        
                  /   \      - P O W E R E D   B Y -                         
                 /     \                                                     
                 |  |  |   _    _      __       _____    __    __             
                 |  |  |  | |  | |    /  \     |  _  \  |  |  /  |          
                  \  \/   | |  | |   /    \    | | | |  |  | /  /          
                 / \  \   | |__| |  /  /\  \   | |_| |  |  |/  /          
                |  |  |   |  __  | /  /__\  \  |    /   |      \           
                |  |  |   | |  | | |   __   |  |    \   |  |\   \          
                \     /   | |  | | |  |  |  |  | |\  \  |  | \   \       
                 \___/    |_|  |_| |__|  |__|  |_| \__\ |__|  \__/        
                                                                              
                      - O R C A' S   B I G   F R I E N D -                    
                                      &                                       
                       - I N T E G R A L  F E E D E R -                       
                                                                              
 v1 FN, 2020, v2 2021                                                         
------------------------------------------------------------------------------


Reading SHARK input file acrolien.11.SHARKINP.tmp ... ok
----------------------
SHARK INTEGRAL PACKAGE
----------------------

Number of atoms                             ...      8
Number of basis functions                   ...    100
Number of shells                            ...     60
Maximum angular momentum                    ...      2
Integral batch strategy                     ... SHARK/LIBINT Hybrid
RI-J (if used) integral strategy            ... SPLIT-RIJ (Revised 2003 algorithm where possible)
Printlevel                                  ...      1
Contraction scheme used                     ... PARTIAL GENERAL contraction
Coulomb Range Separation                    ... NOT USED
Exchange Range Separation                   ... NOT USED
Finite Nucleus Model                        ... NOT USED
Auxiliary Coulomb fitting basis             ... AVAILABLE
   # of basis functions in Aux-J            ...    240
   # of shells in Aux-J                     ...     80
   Maximum angular momentum in Aux-J        ...      4
Auxiliary J/K fitting basis                 ... NOT available
Auxiliary Correlation fitting basis         ... NOT available
Auxiliary 'external' fitting basis          ... NOT available
Integral threshold                          ...     2.500000e-11
Primitive cut-off                           ...     2.500000e-12
Primitive pair pre-selection threshold      ...     2.500000e-12

Calculating pre-screening integrals         ... done (  0.0 sec) Dimension = 60
Calculating pre-screening integrals (ORCA)  ... done (  0.4 sec) Dimension = 36
Organizing shell pair data                  ... done (  0.3 sec)
Shell pair information
Total number of shell pairs                 ...      1830
Shell pairs after pre-screening             ...      1541
Total number of primitive shell pairs       ...      2950
Primitive shell pairs kept                  ...      2310
          la=0 lb=0:    729 shell pairs
          la=1 lb=0:    505 shell pairs
          la=1 lb=1:     78 shell pairs
          la=2 lb=0:    171 shell pairs
          la=2 lb=1:     48 shell pairs
          la=2 lb=2:     10 shell pairs

Calculating one electron integrals          ... done (  0.0 sec)
Calculating RI/J V-Matrix + Cholesky decomp.... done (  1.6 sec)
Calculating Nuclear repulsion               ... done (  0.4 sec) ENN=    106.697975965551 Eh

SHARK setup successfully completed in   4.4 seconds

Maximum memory used throughout the entire GTOINT-calculation: 14.2 MB
-------------------------------------------------------------------------------
                                 ORCA SCF
-------------------------------------------------------------------------------

------------
SCF SETTINGS
------------
Hamiltonian:
 Density Functional     Method          .... DFT(GTOs)
 Exchange Functional    Exchange        .... B88
   X-Alpha parameter    XAlpha          ....  0.666667
   Becke's b parameter  XBeta           ....  0.004200
 Correlation Functional Correlation     .... LYP
 LDA part of GGA corr.  LDAOpt          .... VWN-5
 Gradients option       PostSCFGGA      .... off
 Hybrid DFT is turned on
   Fraction HF Exchange ScalHFX         ....  0.200000
   Scaling of DF-GGA-X  ScalDFX         ....  0.720000
   Scaling of DF-GGA-C  ScalDFC         ....  0.810000
   Scaling of DF-LDA-C  ScalLDAC        ....  1.000000
   Perturbative correction              ....  0.000000
   Density functional embedding theory  .... OFF
   NL short-range parameter             ....  4.800000
 RI-approximation to the Coulomb term is turned on
   Number of AuxJ basis functions       .... 240
   RIJ-COSX (HFX calculated with COS-X)).... on


General Settings:
 Integral files         IntName         .... acrolien.11
 Hartree-Fock type      HFTyp           .... RHF
 Total Charge           Charge          ....    0
 Multiplicity           Mult            ....    1
 Number of Electrons    NEL             ....   30
 Basis Dimension        Dim             ....   76
 Nuclear Repulsion      ENuc            ....    106.6979759656 Eh

Convergence Acceleration:
 DIIS                   CNVDIIS         .... on
   Start iteration      DIISMaxIt       ....    12
   Startup error        DIISStart       ....  0.200000
   # of expansion vecs  DIISMaxEq       ....     5
   Bias factor          DIISBfac        ....   1.050
   Max. coefficient     DIISMaxC        ....  10.000
 Trust-Rad. Augm. Hess. CNVTRAH         .... auto
   Auto Start mean grad. ratio tolernc. ....  1.125000
   Auto Start start iteration           ....    20
   Auto Start num. interpolation iter.  ....    10
   Max. Number of Micro iterations      ....    16
   Max. Number of Macro iterations      .... Maxiter - #DIIS iter
   Number of Davidson start vectors     ....     2
   Converg. threshold I  (grad. norm)   ....   1.000e-05
   Converg. threshold II (energy diff.) ....   1.000e-08
   Grad. Scal. Fac. for Micro threshold ....   0.100
   Minimum threshold for Micro iter.    ....   0.010
   NR start threshold (gradient norm)   ....   0.001
   Initial trust radius                 ....   0.400
   Minimum AH scaling param. (alpha)    ....   1.000
   Maximum AH scaling param. (alpha)    .... 1000.000
   Orbital update algorithm             .... Taylor
   White noise on init. David. guess    .... on
   Maximum white noise                  ....   0.010
   Quad. conv. algorithm                .... NR
 SOSCF                  CNVSOSCF        .... on
   Start iteration      SOSCFMaxIt      ....   150
   Startup grad/error   SOSCFStart      ....  0.003300
 Level Shifting         CNVShift        .... on
   Level shift para.    LevelShift      ....    0.2500
   Turn off err/grad.   ShiftErr        ....    0.0010
 Zerner damping         CNVZerner       .... off
 Static damping         CNVDamp         .... on
   Fraction old density DampFac         ....    0.7000
   Max. Damping (<1)    DampMax         ....    0.9800
   Min. Damping (>=0)   DampMin         ....    0.0000
   Turn off err/grad.   DampErr         ....    0.1000
 Fernandez-Rico         CNVRico         .... off

SCF Procedure:
 Maximum # iterations   MaxIter         ....   500
 SCF integral mode      SCFMode         .... Direct
   Integral package                     .... SHARK and LIBINT hybrid scheme
 Reset frequency        DirectResetFreq ....    20
 Integral Threshold     Thresh          ....  2.500e-11 Eh
 Primitive CutOff       TCut            ....  2.500e-12 Eh

Convergence Tolerance:
 Convergence Check Mode ConvCheckMode   .... Total+1el-Energy
 Convergence forced     ConvForced      .... 1
 Energy Change          TolE            ....  1.000e-08 Eh
 1-El. energy change                    ....  1.000e-05 Eh
 Orbital Gradient       TolG            ....  1.000e-05
 Orbital Rotation angle TolX            ....  1.000e-05
 DIIS Error             TolErr          ....  5.000e-07


Diagonalization of the overlap matrix:
Smallest eigenvalue                        ... 3.081e-03
Time for diagonalization                   ...    0.002 sec
Threshold for overlap eigenvalues          ... 1.000e-08
Number of eigenvalues below threshold      ... 0
Time for construction of square roots      ...    0.335 sec
Total time needed                          ...    0.337 sec

Time for model grid setup =    0.068 sec

------------------------------
INITIAL GUESS: MODEL POTENTIAL
------------------------------
Loading Hartree-Fock densities                     ... done
Calculating cut-offs                               ... done
Initializing the effective Hamiltonian             ... done
Setting up the integral package (SHARK)            ... done
Starting the Coulomb interaction                   ... done (   0.0 sec)
Reading the grid                                   ... done
Mapping shells                                     ... done
Starting the XC term evaluation                    ... done (   0.1 sec)
  promolecular density results
     # of electrons  =     29.999840057
     EX              =    -24.812986258
     EC              =     -1.000370667
     EX+EC           =    -25.813356924
Transforming the Hamiltonian                       ... done (   0.0 sec)
Diagonalizing the Hamiltonian                      ... done (   0.0 sec)
Back transforming the eigenvectors                 ... done (   0.0 sec)
Now organizing SCF variables                       ... done
                      ------------------
                      INITIAL GUESS DONE (   0.6 sec)
                      ------------------
-------------------
DFT GRID GENERATION
-------------------

General Integration Accuracy     IntAcc      ... 4.388
Radial Grid Type                 RadialGrid  ... OptM3 with GC (2021)
Angular Grid (max. ang.)         AngularGrid ... 4 (Lebedev-302)
Angular grid pruning method      GridPruning ... 4 (adaptive)
Weight generation scheme         WeightScheme... Becke
Basis function cutoff            BFCut       ... 1.0000e-11
Integration weight cutoff        WCut        ... 1.0000e-14
Angular grids for H and He will be reduced by one unit
Partially contracted basis set               ... off
Rotationally invariant grid construction     ... off

Total number of grid points                  ...    37350
Total number of batches                      ...      586
Average number of points per batch           ...       63
Average number of grid points per atom       ...     4669
Time for grid setup =    0.844 sec

--------------------
COSX GRID GENERATION
--------------------

GRIDX 1
-------
General Integration Accuracy     IntAcc      ... 3.816
Radial Grid Type                 RadialGrid  ... OptM3 with GC (2021)
Angular Grid (max. ang.)         AngularGrid ... 1 (Lebedev-50)
Angular grid pruning method      GridPruning ... 4 (adaptive)
Weight generation scheme         WeightScheme... Becke
Basis function cutoff            BFCut       ... 1.0000e-11
Integration weight cutoff        WCut        ... 1.0000e-14
Angular grids for H and He will be reduced by one unit
Partially contracted basis set               ... on
Rotationally invariant grid construction     ... off

Total number of grid points                  ...     4796
Total number of batches                      ...       79
Average number of points per batch           ...       60
Average number of grid points per atom       ...      600
UseSFitting                                  ... on

GRIDX 2
-------
General Integration Accuracy     IntAcc      ... 4.020
Radial Grid Type                 RadialGrid  ... OptM3 with GC (2021)
Angular Grid (max. ang.)         AngularGrid ... 2 (Lebedev-110)
Angular grid pruning method      GridPruning ... 4 (adaptive)
Weight generation scheme         WeightScheme... Becke
Basis function cutoff            BFCut       ... 1.0000e-11
Integration weight cutoff        WCut        ... 1.0000e-14
Angular grids for H and He will be reduced by one unit
Partially contracted basis set               ... on
Rotationally invariant grid construction     ... off

Total number of grid points                  ...    10560
Total number of batches                      ...      168
Average number of points per batch           ...       62
Average number of grid points per atom       ...     1320
UseSFitting                                  ... on

GRIDX 3
-------
General Integration Accuracy     IntAcc      ... 4.338
Radial Grid Type                 RadialGrid  ... OptM3 with GC (2021)
Angular Grid (max. ang.)         AngularGrid ... 3 (Lebedev-194)
Angular grid pruning method      GridPruning ... 4 (adaptive)
Weight generation scheme         WeightScheme... Becke
Basis function cutoff            BFCut       ... 1.0000e-11
Integration weight cutoff        WCut        ... 1.0000e-14
Angular grids for H and He will be reduced by one unit
Partially contracted basis set               ... on
Rotationally invariant grid construction     ... off

Total number of grid points                  ...    23272
Total number of batches                      ...      367
Average number of points per batch           ...       63
Average number of grid points per atom       ...     2909
UseSFitting                                  ... on

Time for X-Grid setup             =    6.588 sec

 re-compute Schwartz prescreening matrix in partically contracted basis (1) ...done (   1.047 sec)
--------------
SCF ITERATIONS
--------------
ITER       Energy         Delta-E        Max-DP      RMS-DP      [F,P]     Damp
               ***  Starting incremental Fock matrix formation  ***
  0   -191.6019794667   0.000000000000 0.08826583  0.00394350  0.2511230 0.7000
  1   -191.6730373692  -0.071057902524 0.05090026  0.00261670  0.1034782 0.7000
                               ***Turning on DIIS***
  2   -191.6993340553  -0.026296686053 0.06779778  0.00393118  0.0380642 0.0000
  3   -191.7429744329  -0.043640377636 0.03315575  0.00183221  0.0482937 0.0000
  4   -191.7514743890  -0.008499956043 0.00880994  0.00056842  0.0162845 0.0000
  5   -191.7522820161  -0.000807627100 0.00433755  0.00018476  0.0042148 0.0000
                      *** Initiating the SOSCF procedure ***
                           *** Shutting down DIIS ***
                      *** Re-Reading the Fockian *** 
                      *** Removing any level shift *** 
ITER      Energy       Delta-E        Grad      Rot      Max-DP    RMS-DP
  6   -191.75232035  -0.0000383373  0.000360  0.000360  0.002325  0.000102
               *** Restarting incremental Fock matrix formation ***
  7   -191.75237674  -0.0000563889  0.000337  0.001389  0.001478  0.000056
  8   -191.75237489   0.0000018529  0.000634  0.000948  0.000926  0.000031
  9   -191.75237772  -0.0000028339  0.000027  0.000069  0.000101  0.000005
 10   -191.75237772   0.0000000051  0.000034  0.000036  0.000059  0.000003
 11   -191.75237774  -0.0000000184  0.000004  0.000010  0.000017  0.000001
 12   -191.75237774  -0.0000000005  0.000007  0.000006  0.000010  0.000000
                  ***Gradient check signals convergence***
              ***Rediagonalizing the Fockian in SOSCF/NRSCF***

               *****************************************************
               *                     SUCCESS                       *
               *           SCF CONVERGED AFTER  13 CYCLES          *
               *****************************************************

Old exchange energy                            =     -5.059988039 Eh
New exchange energy                            =     -5.059954085 Eh
Exchange energy change after final integration =      0.000033954 Eh
Total energy after final integration           =   -191.752343782 Eh
Final COS-X integration done in                =     1.493 sec

----------------
TOTAL SCF ENERGY
----------------

Total Energy       :         -191.75234378 Eh           -5217.84654 eV

Components:
Nuclear Repulsion  :          106.69797597 Eh            2903.39953 eV
Electronic Energy  :         -298.45031975 Eh           -8121.24608 eV
One Electron Energy:         -470.28545525 Eh          -12797.11783 eV
Two Electron Energy:          171.83513550 Eh            4675.87175 eV
Max COSX asymmetry :            0.00000213 Eh               0.00006 eV

Virial components:
Potential Energy   :         -383.14795702 Eh          -10425.98596 eV
Kinetic Energy     :          191.39561324 Eh            5208.13941 eV
Virial Ratio       :            2.00186384


DFT components:
N(Alpha)           :       14.999998827563 electrons
N(Beta)            :       14.999998827563 electrons
N(Total)           :       29.999997655125 electrons
E(X)               :      -20.098722322816 Eh       
E(C)               :       -1.189314658998 Eh       
E(XC)              :      -21.288036981813 Eh       
DFET-embed. en.    :        0.000000000000 Eh       

---------------
SCF CONVERGENCE
---------------

  Last Energy change         ...    8.9639e-10  Tolerance :   1.0000e-08
  Last MAX-Density change    ...    3.1086e-15  Tolerance :   1.0000e-07
  Last RMS-Density change    ...    8.2070e-17  Tolerance :   5.0000e-09
  Last Orbital Gradient      ...    1.8374e-07  Tolerance :   1.0000e-05
  Last Orbital Rotation      ...    2.2796e-07  Tolerance :   1.0000e-05

             **** THE GBW FILE WAS UPDATED (acrolien.11.gbw) ****
             **** DENSITY acrolien.11.scfp WAS UPDATED ****
             **** ENERGY FILE WAS UPDATED (acrolien.11.en.tmp) ****
             **** THE GBW FILE WAS UPDATED (acrolien.11.gbw) ****
             **** DENSITY acrolien.11.scfp WAS UPDATED ****
----------------
ORBITAL ENERGIES
----------------

  NO   OCC          E(Eh)            E(eV) 
   0   2.0000     -19.144907      -520.9594 
   1   2.0000     -10.273547      -279.5574 
   2   2.0000     -10.189384      -277.2672 
   3   2.0000     -10.183653      -277.1113 
   4   2.0000      -1.105761       -30.0893 
   5   2.0000      -0.797614       -21.7042 
   6   2.0000      -0.647425       -17.6173 
   7   2.0000      -0.541675       -14.7397 
   8   2.0000      -0.519465       -14.1354 
   9   2.0000      -0.462227       -12.5778 
  10   2.0000      -0.436326       -11.8730 
  11   2.0000      -0.426671       -11.6103 
  12   2.0000      -0.403109       -10.9692 
  13   2.0000      -0.289402        -7.8750 
  14   2.0000      -0.249433        -6.7874 
  15   0.0000      -0.047195        -1.2842 
  16   0.0000       0.067985         1.8500 
  17   0.0000       0.080307         2.1853 
  18   0.0000       0.101292         2.7563 
  19   0.0000       0.125248         3.4082 
  20   0.0000       0.163945         4.4612 
  21   0.0000       0.255179         6.9438 
  22   0.0000       0.275198         7.4885 
  23   0.0000       0.293011         7.9732 
  24   0.0000       0.429826        11.6962 
  25   0.0000       0.449918        12.2429 
  26   0.0000       0.480496        13.0750 
  27   0.0000       0.503750        13.7077 
  28   0.0000       0.513740        13.9796 
  29   0.0000       0.567273        15.4363 
  30   0.0000       0.579302        15.7636 
  31   0.0000       0.620059        16.8727 
  32   0.0000       0.683984        18.6121 
  33   0.0000       0.729304        19.8454 
  34   0.0000       0.752158        20.4673 
  35   0.0000       0.759875        20.6772 
  36   0.0000       0.803865        21.8743 
  37   0.0000       0.864584        23.5265 
  38   0.0000       0.900652        24.5080 
  39   0.0000       0.965280        26.2666 
  40   0.0000       0.990426        26.9509 
  41   0.0000       1.007904        27.4265 
  42   0.0000       1.040555        28.3149 
  43   0.0000       1.064531        28.9674 
  44   0.0000       1.082894        29.4670 
  45   0.0000       1.157131        31.4871 
  46   0.0000       1.181422        32.1481 
  47   0.0000       1.322037        35.9744 
  48   0.0000       1.467946        39.9448 
  49   0.0000       1.490232        40.5513 
  50   0.0000       1.511189        41.1216 
  51   0.0000       1.558694        42.4142 
  52   0.0000       1.597208        43.4622 
  53   0.0000       1.621354        44.1193 
  54   0.0000       1.665189        45.3121 
  55   0.0000       1.671575        45.4859 
  56   0.0000       1.732427        47.1417 
  57   0.0000       1.775716        48.3197 
  58   0.0000       1.794700        48.8363 
  59   0.0000       1.909317        51.9552 
  60   0.0000       1.969144        53.5831 
  61   0.0000       2.009386        54.6782 
  62   0.0000       2.120232        57.6944 
  63   0.0000       2.135658        58.1142 
  64   0.0000       2.217523        60.3419 
  65   0.0000       2.288723        62.2793 
  66   0.0000       2.335846        63.5616 
  67   0.0000       2.628696        71.5304 
  68   0.0000       2.664912        72.5160 
  69   0.0000       2.703901        73.5769 
  70   0.0000       2.875323        78.2415 
  71   0.0000       2.966438        80.7209 
  72   0.0000       3.143689        85.5441 
  73   0.0000       3.193338        86.8951 
  74   0.0000       3.535168        96.1968 
  75   0.0000       3.576502        97.3216 

                    ********************************
                    * MULLIKEN POPULATION ANALYSIS *
                    ********************************

-----------------------
MULLIKEN ATOMIC CHARGES
-----------------------
   0 C :    0.140664
   1 O :   -0.093940
   2 C :   -0.149001
   3 C :    0.222100
   4 H :   -0.041863
   5 H :   -0.044413
   6 H :    0.021818
   7 H :   -0.055365
Sum of atomic charges:   -0.0000000

--------------------------------
MULLIKEN REDUCED ORBITAL CHARGES
--------------------------------
  0 C s       :     3.122934  s :     3.122934
      pz      :     0.752384  p :     2.577749
      px      :     0.907321
      py      :     0.918044
      dz2     :     0.006897  d :     0.158653
      dxz     :     0.005901
      dyz     :     0.033632
      dx2y2   :     0.031696
      dxy     :     0.080528
  1 O s       :     3.679290  s :     3.679290
      pz      :     1.268993  p :     4.390602
      px      :     1.722906
      py      :     1.398703
      dz2     :     0.002662  d :     0.024049
      dxz     :     0.000125
      dyz     :     0.007626
      dx2y2   :     0.007878
      dxy     :     0.005758
  2 C s       :     3.175667  s :     3.175667
      pz      :     0.986019  p :     2.915401
      px      :     1.011868
      py      :     0.917514
      dz2     :     0.003226  d :     0.057933
      dxz     :     0.007959
      dyz     :     0.002549
      dx2y2   :     0.024146
      dxy     :     0.020053
  3 C s       :     2.912475  s :     2.912475
      pz      :     0.917954  p :     2.819225
      px      :     1.025619
      py      :     0.875651
      dz2     :    -0.000206  d :     0.046201
      dxz     :     0.007393
      dyz     :     0.002340
      dx2y2   :     0.014946
      dxy     :     0.021728
  4 H s       :     1.018585  s :     1.018585
      pz      :     0.003066  p :     0.023278
      px      :     0.014001
      py      :     0.006211
  5 H s       :     1.012933  s :     1.012933
      pz      :     0.006916  p :     0.031479
      px      :     0.005479
      py      :     0.019084
  6 H s       :     0.945967  s :     0.945967
      pz      :     0.005517  p :     0.032215
      px      :     0.006025
      py      :     0.020672
  7 H s       :     1.015830  s :     1.015830
      pz      :     0.009004  p :     0.039536
      px      :     0.015588
      py      :     0.014944


                     *******************************
                     * LOEWDIN POPULATION ANALYSIS *
                     *******************************

----------------------
LOEWDIN ATOMIC CHARGES
----------------------
   0 C :   -0.083238
   1 O :    0.096757
   2 C :   -0.054138
   3 C :    0.043186
   4 H :   -0.021218
   5 H :    0.005883
   6 H :    0.036273
   7 H :   -0.023506

-------------------------------
LOEWDIN REDUCED ORBITAL CHARGES
-------------------------------
  0 C s       :     2.878784  s :     2.878784
      pz      :     0.748806  p :     2.776728
      px      :     0.992774
      py      :     1.035148
      dz2     :     0.023776  d :     0.427726
      dxz     :     0.014360
      dyz     :     0.069847
      dx2y2   :     0.087144
      dxy     :     0.232600
  1 O s       :     3.422134  s :     3.422134
      pz      :     1.241777  p :     4.437296
      px      :     1.664400
      py      :     1.531118
      dz2     :     0.005642  d :     0.043814
      dxz     :     0.000216
      dyz     :     0.009573
      dx2y2   :     0.017290
      dxy     :     0.011093
  2 C s       :     2.840852  s :     2.840852
      pz      :     0.942126  p :     3.030118
      px      :     1.056280
      py      :     1.031711
      dz2     :     0.014469  d :     0.183168
      dxz     :     0.019851
      dyz     :     0.006269
      dx2y2   :     0.073805
      dxy     :     0.068773
  3 C s       :     2.777884  s :     2.777884
      pz      :     0.876830  p :     3.019336
      px      :     1.099280
      py      :     1.043226
      dz2     :     0.011908  d :     0.159594
      dxz     :     0.018748
      dyz     :     0.003892
      dx2y2   :     0.056981
      dxy     :     0.068065
  4 H s       :     0.953794  s :     0.953794
      pz      :     0.009151  p :     0.067423
      px      :     0.040249
      py      :     0.018024
  5 H s       :     0.894783  s :     0.894783
      pz      :     0.022603  p :     0.099334
      px      :     0.021019
      py      :     0.055712
  6 H s       :     0.879987  s :     0.879987
      pz      :     0.016275  p :     0.083740
      px      :     0.017554
      py      :     0.049911
  7 H s       :     0.886188  s :     0.886188
      pz      :     0.033088  p :     0.137317
      px      :     0.052171
      py      :     0.052059


                      *****************************
                      * MAYER POPULATION ANALYSIS *
                      *****************************

  NA   - Mulliken gross atomic population
  ZA   - Total nuclear charge
  QA   - Mulliken gross atomic charge
  VA   - Mayer's total valence
  BVA  - Mayer's bonded valence
  FA   - Mayer's free valence

  ATOM       NA         ZA         QA         VA         BVA        FA
  0 C      5.8593     6.0000     0.1407     4.2231     4.2231     0.0000
  1 O      8.0939     8.0000    -0.0939     2.4679     2.4679    -0.0000
  2 C      6.1490     6.0000    -0.1490     4.0617     4.0617    -0.0000
  3 C      5.7779     6.0000     0.2221     3.9547     3.9547    -0.0000
  4 H      1.0419     1.0000    -0.0419     0.9542     0.9542     0.0000
  5 H      1.0444     1.0000    -0.0444     0.9789     0.9789    -0.0000
  6 H      0.9782     1.0000     0.0218     0.9863     0.9863    -0.0000
  7 H      1.0554     1.0000    -0.0554     0.9636     0.9636    -0.0000

  Mayer bond orders larger than 0.100000
B(  0-C ,  1-O ) :   2.3282 B(  0-C ,  2-C ) :   0.9840 B(  0-C ,  4-H ) :   0.8821 
B(  2-C ,  3-C ) :   2.0107 B(  2-C ,  5-H ) :   0.9461 B(  3-C ,  6-H ) :   0.9415 
B(  3-C ,  7-H ) :   0.9123 

-------
TIMINGS
-------

Total SCF time: 0 days 0 hours 3 min 4 sec 

Total time                  ....     184.550 sec
Sum of individual times     ....     153.588 sec  ( 83.2%)

Fock matrix formation       ....     142.572 sec  ( 77.3%)
  Split-RI-J                ....       0.989 sec  (  0.7% of F)
  Chain of spheres X        ....       8.697 sec  (  6.1% of F)
  XC integration            ....      57.953 sec  ( 40.6% of F)
    Basis function eval.    ....       1.742 sec  (  3.0% of XC)
    Density eval.           ....       0.819 sec  (  1.4% of XC)
    XC-Functional eval.     ....       0.732 sec  (  1.3% of XC)
    XC-Potential eval.      ....       0.614 sec  (  1.1% of XC)
Diagonalization             ....       0.009 sec  (  0.0%)
Density matrix formation    ....       0.001 sec  (  0.0%)
Population analysis         ....       0.005 sec  (  0.0%)
Initial guess               ....       0.581 sec  (  0.3%)
Orbital Transformation      ....       0.000 sec  (  0.0%)
Orbital Orthonormalization  ....       0.000 sec  (  0.0%)
DIIS solution               ....       0.251 sec  (  0.1%)
SOSCF solution              ....       2.670 sec  (  1.4%)
Grid generation             ....       7.499 sec  (  4.1%)

Maximum memory used throughout the entire SCF-calculation: 51.7 MB
------------------------------------------------------------------------------
                        ORCA TD-DFT/TDA CALCULATION
------------------------------------------------------------------------------

Input orbitals are from        ... acrolien.11.gbw
CI-vector output               ... acrolien.11.cis
Tamm-Dancoff approximation     ... operative
CIS-Integral strategy          ... AO-integrals
Integral handling              ... AO integral Direct
Max. core memory used          ... 512 MB
Reference state                ... RHF
Generation of triplets         ... off
Follow IRoot                   ... off
Number of operators            ... 1
Orbital ranges used for CIS calculation:
 Operator 0:  Orbitals   4... 14  to  15... 75
XAS localization array:
 Operator 0:  Orbitals  -1... -1

-------------------
XC-INTEGRATION GRID
-------------------

General Integration Accuracy     IntAcc      ... 3.467
Radial Grid Type                 RadialGrid  ... OptM3 with GC (2021)
Angular Grid (max. ang.)         AngularGrid ... 1 (Lebedev-50)
Angular grid pruning method      GridPruning ... 4 (adaptive)
Weight generation scheme         WeightScheme... Becke
Basis function cutoff            BFCut       ... 1.0000e-11
Integration weight cutoff        WCut        ... 1.0000e-14
Angular grids for H and He will be reduced by one unit
Partially contracted basis set               ... off
Rotationally invariant grid construction     ... off

Total number of grid points                  ...     5488
Total number of batches                      ...       90
Average number of points per batch           ...       60
Average number of grid points per atom       ...      686

---------------------
COSX-INTEGRATION GRID
---------------------

General Integration Accuracy     IntAcc      ... 3.067
Radial Grid Type                 RadialGrid  ... OptM3 with GC (2021)
Angular Grid (max. ang.)         AngularGrid ... 1 (Lebedev-50)
Angular grid pruning method      GridPruning ... 4 (adaptive)
Weight generation scheme         WeightScheme... Becke
Basis function cutoff            BFCut       ... 1.0000e-11
Integration weight cutoff        WCut        ... 1.0000e-14
Angular grids for H and He will be reduced by one unit
Partially contracted basis set               ... on
Rotationally invariant grid construction     ... off

Total number of grid points                  ...     2505
Total number of batches                      ...       45
Average number of points per batch           ...       55
Average number of grid points per atom       ...      313

---------------
TD-DFT XC SETUP
---------------

DFT calculation                         ... on
Name of the grid file                   ... acrolien.11.grid_cis.tmp
Exchange functional (TD-DFT)            ... B88
   X-Alpha parameter    XAlpha (TD-DFT) ...  0.666667
   Becke's b parameter  XBeta (TD-DFT)  ...  0.004200
Correlation functional (TD-DFT)         ... LYP
 LDA part of GGA corr.  LDAOpt (TD-DFT) ... VWN-5
Hybrid DFT                              ... on
   Exchange mixing (TD-DFT)             ...  0.200
   GGA exch. scaling (TD-DFT)           ...  0.720
   GGA corr. scaling (TD-DFT)           ...  0.810

Building densities             ... done
Calculating rho(r) on the grid ... done
Building xc-kernel on the grid ... done
                    *** TD-DFT CALCULATION INITIALIZED ***

------------------------
DAVIDSON-DIAGONALIZATION
------------------------

Dimension of the eigenvalue problem            ...    671
Number of roots to be determined               ...      1
Maximum size of the expansion space            ...     10
Maximum number of iterations                   ...    100
Convergence tolerance for the residual         ...    2.500e-07
Convergence tolerance for the energies         ...    2.500e-07
Orthogonality tolerance                        ...    1.000e-14
Level Shift                                    ...    0.000e+00
Constructing the preconditioner                ... o.k.
Building the initial guess                     ... o.k.
Number of trial vectors determined             ...     10


                       ****Iteration    0****

   Memory handling for direct AO based CIS:
   Memory per vector needed      ...     1 MB
   Memory needed                 ...     0 MB
   Memory available              ...   512 MB
   Number of vectors per batch   ...   512
   Number of batches             ...     1
   Time for densities:            0.000
   Time for RI-J (Direct):        0.070
   Time for K (COSX):             0.252
   Time for XC-Integration:       0.082
   Time for Sigma-Completion:     0.000
   Size of expansion space: 3
   Lowest Energy          :     0.147268327359
   Maximum Energy change  :     0.147268327359 (vector 0)
   Maximum residual norm  :     0.001327485670

                       ****Iteration    1****
   Time for densities:            0.000
   Time for RI-J (Direct):        0.054
   Time for K (COSX):             1.008
   Time for XC-Integration:       0.042
   Time for Sigma-Completion:     0.000
   Size of expansion space: 4
   Lowest Energy          :     0.145797946097
   Maximum Energy change  :     0.001470381262 (vector 0)
   Maximum residual norm  :     0.000062813516

                       ****Iteration    2****
   Time for densities:            0.000
   Time for RI-J (Direct):        0.054
   Time for K (COSX):             0.697
   Time for XC-Integration:       0.043
   Time for Sigma-Completion:     0.000
   Size of expansion space: 5
   Lowest Energy          :     0.145727117180
   Maximum Energy change  :     0.000070828917 (vector 0)
   Maximum residual norm  :     0.000002865828

                       ****Iteration    3****
   Time for densities:            0.000
   Time for RI-J (Direct):        0.054
   Time for K (COSX):             0.595
   Time for XC-Integration:       0.042
   Time for Sigma-Completion:     0.000
   Size of expansion space: 6
   Lowest Energy          :     0.145724669499
   Maximum Energy change  :     0.000002447681 (vector 0)
   Maximum residual norm  :     0.000000272392

                       ****Iteration    4****
   Time for densities:            0.000
   Time for RI-J (Direct):        0.055
   Time for K (COSX):             0.794
   Time for XC-Integration:       0.042
   Time for Sigma-Completion:     0.000
   Size of expansion space: 7
   Lowest Energy          :     0.145724430266
   Maximum Energy change  :     0.000000239233 (vector 0)

         *** CONVERGENCE OF ENERGIES REACHED ***

Storing the converged CI vectors               ... acrolien.11.cis1

                 *** DAVIDSON DONE ***

Total time for solving the CIS problem:     6.132sec

------------------------------------
TD-DFT/TDA EXCITED STATES (SINGLETS)
------------------------------------

the weight of the individual excitations are printed if larger than 1.0e-02

STATE  1:  E=   0.145724 au      3.965 eV    31982.8 cm**-1 <S**2> =   0.000000
    14a ->  15a  :     0.983958 (c= -0.99194679)
    14a ->  16a  :     0.012304 (c=  0.11092489)


-----------------------------
TD-DFT/TDA-EXCITATION SPECTRA
-----------------------------

Center of mass = ( -0.5661, -0.6812, -0.1459)
Calculating the Dipole integrals                  ... done
Transforming integrals                            ... done
Calculating the Linear Momentum integrals         ... done
Transforming integrals                            ... done
Calculating angular momentum integrals            ... done
Transforming integrals                            ... done

-----------------------------------------------------------------------------
         ABSORPTION SPECTRUM VIA TRANSITION ELECTRIC DIPOLE MOMENTS
-----------------------------------------------------------------------------
State   Energy    Wavelength  fosc         T2        TX        TY        TZ  
        (cm-1)      (nm)                 (au**2)    (au)      (au)      (au) 
-----------------------------------------------------------------------------
   1   31982.8    312.7   0.000045732   0.00047   0.00314  -0.00645  -0.02048

-----------------------------------------------------------------------------
         ABSORPTION SPECTRUM VIA TRANSITION VELOCITY DIPOLE MOMENTS
-----------------------------------------------------------------------------
State   Energy    Wavelength   fosc        P2         PX        PY        PZ  
        (cm-1)      (nm)                 (au**2)     (au)      (au)      (au) 
-----------------------------------------------------------------------------
   1   31982.8    312.7   0.001768591   0.00039  -0.00572  -0.00142   0.01876

-------------------------------------------------------------------
                             CD SPECTRUM
-------------------------------------------------------------------
State  Energy     Wavelength     R         MX        MY        MZ   
       (cm-1)       (nm)     (1e40*cgs)   (au)      (au)      (au)  
-------------------------------------------------------------------
   1   31982.8    312.7      1.31639  -0.07456  -0.29518  -0.05484

-------------------------------------------------------------------
         CD SPECTRUM VIA TRANSITION VELOCITY DIPOLE MOMENTS        
-------------------------------------------------------------------
State  Energy     Wavelength     R         MX        MY        MZ   
       (cm-1)       (nm)     (1e40*cgs)   (au)      (au)      (au)  
-------------------------------------------------------------------
   1   31982.8    312.7     -0.59411  -0.07456  -0.29518  -0.05484

Total run time:       12.968 sec

           *** ORCA-CIS/TD-DFT FINISHED WITHOUT ERROR ***

Maximum memory used throughout the entire CIS-calculation: 48.6 MB

-----------------------
CIS/TD-DFT TOTAL ENERGY
-----------------------

    E(SCF)  =   -191.752343782 Eh
    DE(CIS) =      0.145724430 Eh (Root  1)
    ----------------------------- ---------
    E(tot)  =   -191.606619352 Eh


-------------------------   --------------------
FINAL SINGLE POINT ENERGY      -191.606619352085
-------------------------   --------------------


                            ***************************************
                            *     ORCA property calculations      *
                            ***************************************

                                    ---------------------
                                    Active property flags
                                    ---------------------
   (+) Dipole Moment


------------------------------------------------------------------------------
                       ORCA ELECTRIC PROPERTIES CALCULATION
------------------------------------------------------------------------------

Dipole Moment Calculation                       ... on
Quadrupole Moment Calculation                   ... off
Polarizability Calculation                      ... off
GBWName                                         ... acrolien.11.gbw
Electron density                                ... acrolien.11.scfp
The origin for moment calculation is the CENTER OF MASS  = (-0.566061, -0.681218 -0.145943)

-------------
DIPOLE MOMENT
-------------
                                X             Y             Z
Electronic contribution:     -1.79885      -1.92054      -0.45840
Nuclear contribution   :      2.09927       2.60387       0.57604
                        -----------------------------------------
Total Dipole Moment    :      0.30042       0.68333       0.11765
                        -----------------------------------------
Magnitude (a.u.)       :      0.75567
Magnitude (Debye)      :      1.92076



--------------------
Rotational spectrum 
--------------------
 
Rotational constants in cm-1:     0.807550     0.206870     0.165006 
Rotational constants in MHz : 24209.741518  6201.793560  4946.762503 

 Dipole components along the rotational axes: 
x,y,z [a.u.] :     0.614461    -0.437814     0.042367 
x,y,z [Debye]:     1.561835    -1.112835     0.107689 

 

Timings for individual modules:

Sum of individual times         ...      205.427 sec (=   3.424 min)
GTO integral calculation        ...        6.367 sec (=   0.106 min)   3.1 %
SCF iterations                  ...      184.562 sec (=   3.076 min)  89.8 %
CIS module                      ...       14.498 sec (=   0.242 min)   7.1 %
                             ****ORCA TERMINATED NORMALLY****
TOTAL RUN TIME: 0 days 0 hours 3 minutes 27 seconds 804 msec
