
                                 *****************
                                 * O   R   C   A *
                                 *****************

                                            #,                                       
                                            ###                                      
                                            ####                                     
                                            #####                                    
                                            ######                                   
                                           ########,                                 
                                     ,,################,,,,,                         
                               ,,#################################,,                 
                          ,,##########################################,,             
                       ,#########################################, ''#####,          
                    ,#############################################,,   '####,        
                  ,##################################################,,,,####,       
                ,###########''''           ''''###############################       
              ,#####''   ,,,,##########,,,,          '''####'''          '####       
            ,##' ,,,,###########################,,,                        '##       
           ' ,,###''''                  '''############,,,                           
         ,,##''                                '''############,,,,        ,,,,,,###''
      ,#''                                            '''#######################'''  
     '                                                          ''''####''''         
             ,#######,   #######,   ,#######,      ##                                
            ,#'     '#,  ##    ##  ,#'     '#,    #''#        ######   ,####,        
            ##       ##  ##   ,#'  ##            #'  '#       #        #'  '#        
            ##       ##  #######   ##           ,######,      #####,   #    #        
            '#,     ,#'  ##    ##  '#,     ,#' ,#      #,         ##   #,  ,#        
             '#######'   ##     ##  '#######'  #'      '#     #####' # '####'        



                  #######################################################
                  #                        -***-                        #
                  #          Department of theory and spectroscopy      #
                  #    Directorship and core code : Frank Neese         #
                  #        Max Planck Institute fuer Kohlenforschung    #
                  #                Kaiser Wilhelm Platz 1               #
                  #                 D-45470 Muelheim/Ruhr               #
                  #                      Germany                        #
                  #                                                     #
                  #                  All rights reserved                #
                  #                        -***-                        #
                  #######################################################


                         Program Version 5.0.3 -  RELEASE  -


 With contributions from (in alphabetic order):
   Daniel Aravena         : Magnetic Suceptibility
   Michael Atanasov       : Ab Initio Ligand Field Theory (pilot matlab implementation)
   Alexander A. Auer      : GIAO ZORA, VPT2 properties, NMR spectrum
   Ute Becker             : Parallelization
   Giovanni Bistoni       : ED, misc. LED, open-shell LED, HFLD
   Martin Brehm           : Molecular dynamics
   Dmytro Bykov           : SCF Hessian
   Vijay G. Chilkuri      : MRCI spin determinant printing, contributions to CSF-ICE
   Dipayan Datta          : RHF DLPNO-CCSD density
   Achintya Kumar Dutta   : EOM-CC, STEOM-CC
   Dmitry Ganyushin       : Spin-Orbit,Spin-Spin,Magnetic field MRCI
   Miquel Garcia          : C-PCM and meta-GGA Hessian, CC/C-PCM, Gaussian charge scheme
   Yang Guo               : DLPNO-NEVPT2, F12-NEVPT2, CIM, IAO-localization
   Andreas Hansen         : Spin unrestricted coupled pair/coupled cluster methods
   Benjamin Helmich-Paris : MC-RPA, TRAH-SCF, COSX integrals
   Lee Huntington         : MR-EOM, pCC
   Robert Izsak           : Overlap fitted RIJCOSX, COSX-SCS-MP3, EOM
   Marcus Kettner         : VPT2
   Christian Kollmar      : KDIIS, OOCD, Brueckner-CCSD(T), CCSD density, CASPT2, CASPT2-K
   Simone Kossmann        : Meta GGA functionals, TD-DFT gradient, OOMP2, MP2 Hessian
   Martin Krupicka        : Initial AUTO-CI
   Lucas Lang             : DCDCAS
   Marvin Lechner         : AUTO-CI (C++ implementation), FIC-MRCC
   Dagmar Lenk            : GEPOL surface, SMD
   Dimitrios Liakos       : Extrapolation schemes; Compound Job, initial MDCI parallelization
   Dimitrios Manganas     : Further ROCIS development; embedding schemes
   Dimitrios Pantazis     : SARC Basis sets
   Anastasios Papadopoulos: AUTO-CI, single reference methods and gradients
   Taras Petrenko         : DFT Hessian,TD-DFT gradient, ASA, ECA, R-Raman, ABS, FL, XAS/XES, NRVS
   Peter Pinski           : DLPNO-MP2, DLPNO-MP2 Gradient
   Christoph Reimann      : Effective Core Potentials
   Marius Retegan         : Local ZFS, SOC
   Christoph Riplinger    : Optimizer, TS searches, QM/MM, DLPNO-CCSD(T), (RO)-DLPNO pert. Triples
   Tobias Risthaus        : Range-separated hybrids, TD-DFT gradient, RPA, STAB
   Michael Roemelt        : Original ROCIS implementation
   Masaaki Saitow         : Open-shell DLPNO-CCSD energy and density
   Barbara Sandhoefer     : DKH picture change effects
   Avijit Sen             : IP-ROCIS
   Kantharuban Sivalingam : CASSCF convergence, NEVPT2, FIC-MRCI
   Bernardo de Souza      : ESD, SOC TD-DFT
   Georgi Stoychev        : AutoAux, RI-MP2 NMR, DLPNO-MP2 response
   Willem Van den Heuvel  : Paramagnetic NMR
   Boris Wezisla          : Elementary symmetry handling
   Frank Wennmohs         : Technical directorship


 We gratefully acknowledge several colleagues who have allowed us to
 interface, adapt or use parts of their codes:
   Stefan Grimme, W. Hujo, H. Kruse, P. Pracht,  : VdW corrections, initial TS optimization,
                  C. Bannwarth, S. Ehlert          DFT functionals, gCP, sTDA/sTD-DF
   Ed Valeev, F. Pavosevic, A. Kumar             : LibInt (2-el integral package), F12 methods
   Garnet Chan, S. Sharma, J. Yang, R. Olivares  : DMRG
   Ulf Ekstrom                                   : XCFun DFT Library
   Mihaly Kallay                                 : mrcc  (arbitrary order and MRCC methods)
   Jiri Pittner, Ondrej Demel                    : Mk-CCSD
   Frank Weinhold                                : gennbo (NPA and NBO analysis)
   Christopher J. Cramer and Donald G. Truhlar   : smd solvation model
   Lars Goerigk                                  : TD-DFT with DH, B97 family of functionals
   V. Asgeirsson, H. Jonsson                     : NEB implementation
   FAccTs GmbH                                   : IRC, NEB, NEB-TS, DLPNO-Multilevel, CI-OPT
                                                   MM, QMMM, 2- and 3-layer-ONIOM, Crystal-QMMM,
                                                   LR-CPCM, SF, NACMEs, symmetry and pop. for TD-DFT,
                                                   nearIR, NL-DFT gradient (VV10), updates on ESD,
                                                   ML-optimized integration grids
   S Lehtola, MJT Oliveira, MAL Marques          : LibXC Library
   Liviu Ungur et al                             : ANISO software


 Your calculation uses the libint2 library for the computation of 2-el integrals
 For citations please refer to: http://libint.valeyev.net

 Your ORCA version has been built with support for libXC version: 5.1.0
 For citations please refer to: https://tddft.org/programs/libxc/

 This ORCA versions uses:
   CBLAS   interface :  Fast vector & matrix operations
   LAPACKE interface :  Fast linear algebra routines
   SCALAPACK package :  Parallel linear algebra routines
   Shared memory     :  Shared parallel matrices
   BLAS/LAPACK       :  OpenBLAS 0.3.15  USE64BITINT DYNAMIC_ARCH NO_AFFINITY Haswell SINGLE_THREADED
        Core in use  :  Haswell
   Copyright (c) 2011-2014, The OpenBLAS Project


Your calculation utilizes the geometrical counterpoise correction gCP
Please cite in your paper:
H.Kruse, S. Grimme J.Chem.Phys., 136, (2012), 154101 
   

Your calculation utilizes the atom-pairwise dispersion correction
with the Becke-Johnson damping scheme (D3BJ)
Cite in your paper:
S.Grimme, S.Ehrlich, L.Goerigk, J Comput Chem, (2011), 32, 1456–1465 
S.Grimme, J.Antony, S.Ehrlich and H.Krieg, J.Chem.Phys., 132, (2010), 154104 
   

================================================================================

----- Orbital basis set information -----
Your calculation utilizes the basis: MINIX,
   a combination of small basis sets by S. Grimme (see manual for definitions).

================================================================================
                                        WARNINGS
                       Please study these warnings very carefully!
================================================================================

INFO   : Checking CIS options ...

INFO   : the flag for use of the SHARK integral package has been found!

================================================================================
                                       INPUT FILE
================================================================================
NAME = acrolien.903.com
|  1> ! HF-3c
|  2> !TightSCF
|  3> %scf
|  4>  ConvForced true
|  5>  convergence tight
|  6>  MaxIter 500
|  7> end
|  8>  
|  9> %tddft 
| 10>  nroots 1
| 11> end
| 12> 
| 13> # 	15099
| 14> * xyz 0 1
| 15> 		C   -1.155821  -0.461240  -0.055336
| 16> 		O   -2.192192  -0.269172  -0.677702
| 17> 		C   -0.020165   0.396719  -0.379339
| 18> 		C    1.212061   0.133548   0.255304
| 19> 		H   -1.077522  -0.981693   0.783796
| 20> 		H   -0.020686   1.175487  -1.096996
| 21> 		H    1.234134  -0.726694   1.132365
| 22> 		H    1.981508   0.748250   0.111797
| 23> *
| 24> 
| 25>                          ****END OF INPUT****
================================================================================

                       ****************************
                       * Single Point Calculation *
                       ****************************

---------------------------------
CARTESIAN COORDINATES (ANGSTROEM)
---------------------------------
  C     -1.155821   -0.461240   -0.055336
  O     -2.192192   -0.269172   -0.677702
  C     -0.020165    0.396719   -0.379339
  C      1.212061    0.133548    0.255304
  H     -1.077522   -0.981693    0.783796
  H     -0.020686    1.175487   -1.096996
  H      1.234134   -0.726694    1.132365
  H      1.981508    0.748250    0.111797

----------------------------
CARTESIAN COORDINATES (A.U.)
----------------------------
  NO LB      ZA    FRAG     MASS         X           Y           Z
   0 C     6.0000    0    12.011   -2.184185   -0.871617   -0.104570
   1 O     8.0000    0    15.999   -4.142643   -0.508661   -1.280671
   2 C     6.0000    0    12.011   -0.038106    0.749690   -0.716847
   3 C     6.0000    0    12.011    2.290463    0.252369    0.482455
   4 H     1.0000    0     1.008   -2.036221   -1.855131    1.481160
   5 H     1.0000    0     1.008   -0.039091    2.221349   -2.073022
   6 H     1.0000    0     1.008    2.332175   -1.373253    2.139860
   7 H     1.0000    0     1.008    3.744507    1.413988    0.211266

--------------------------------
INTERNAL COORDINATES (ANGSTROEM)
--------------------------------
 C      0   0   0     0.000000000000     0.00000000     0.00000000
 O      1   0   0     1.224048366782     0.00000000     0.00000000
 C      1   2   0     1.459721254222   116.97659801     0.00000000
 C      3   1   2     1.410819488016   118.03584688   184.42322828
 H      1   2   3     0.990527421142   125.45828112   164.20936233
 H      3   1   2     1.059014371439   125.60904314     0.73229613
 H      4   3   1     1.228714577766   117.86472141   353.72646979
 H      4   3   1     0.995239415247   119.68168348   185.12853236

---------------------------
INTERNAL COORDINATES (A.U.)
---------------------------
 C      0   0   0     0.000000000000     0.00000000     0.00000000
 O      1   0   0     2.313116187891     0.00000000     0.00000000
 C      1   2   0     2.758473402343   116.97659801     0.00000000
 C      3   1   2     2.666062456749   118.03584688   184.42322828
 H      1   2   3     1.871825554097   125.45828112   164.20936233
 H      3   1   2     2.001247133906   125.60904314     0.73229613
 H      4   3   1     2.321934048734   117.86472141   353.72646979
 H      4   3   1     1.880729932502   119.68168348   185.12853236

---------------------
BASIS SET INFORMATION
---------------------
There are 3 groups of distinct atoms

 Group   1 Type C   : 6s3p contracted to 2s1p pattern {33/3}
 Group   2 Type O   : 6s3p contracted to 2s1p pattern {33/3}
 Group   3 Type H   : 3s contracted to 1s pattern {3}

Atom   0C    basis set group =>   1
Atom   1O    basis set group =>   2
Atom   2C    basis set group =>   1
Atom   3C    basis set group =>   1
Atom   4H    basis set group =>   3
Atom   5H    basis set group =>   3
Atom   6H    basis set group =>   3
Atom   7H    basis set group =>   3
------------------------------------------------------------------------------
                           ORCA GTO INTEGRAL CALCULATION
------------------------------------------------------------------------------
------------------------------------------------------------------------------
                   ___                                                        
                  /   \      - P O W E R E D   B Y -                         
                 /     \                                                     
                 |  |  |   _    _      __       _____    __    __             
                 |  |  |  | |  | |    /  \     |  _  \  |  |  /  |          
                  \  \/   | |  | |   /    \    | | | |  |  | /  /          
                 / \  \   | |__| |  /  /\  \   | |_| |  |  |/  /          
                |  |  |   |  __  | /  /__\  \  |    /   |      \           
                |  |  |   | |  | | |   __   |  |    \   |  |\   \          
                \     /   | |  | | |  |  |  |  | |\  \  |  | \   \       
                 \___/    |_|  |_| |__|  |__|  |_| \__\ |__|  \__/        
                                                                              
                      - O R C A' S   B I G   F R I E N D -                    
                                      &                                       
                       - I N T E G R A L  F E E D E R -                       
                                                                              
 v1 FN, 2020, v2 2021                                                         
------------------------------------------------------------------------------


Reading SHARK input file acrolien.903.SHARKINP.tmp ... ok
----------------------
SHARK INTEGRAL PACKAGE
----------------------

Number of atoms                             ...      8
Number of basis functions                   ...     24
Number of shells                            ...     16
Maximum angular momentum                    ...      1
Integral batch strategy                     ... SHARK/LIBINT Hybrid
RI-J (if used) integral strategy            ... SPLIT-RIJ (Revised 2003 algorithm where possible)
Printlevel                                  ...      1
Contraction scheme used                     ... SEGMENTED contraction
Coulomb Range Separation                    ... NOT USED
Exchange Range Separation                   ... NOT USED
Finite Nucleus Model                        ... NOT USED
Auxiliary Coulomb fitting basis             ... NOT available
Auxiliary J/K fitting basis                 ... NOT available
Auxiliary Correlation fitting basis         ... NOT available
Auxiliary 'external' fitting basis          ... NOT available
Integral threshold                          ...     2.500000e-11
Primitive cut-off                           ...     2.500000e-12
Primitive pair pre-selection threshold      ...     2.500000e-12

Calculating pre-screening integrals         ... done (  0.0 sec) Dimension = 16
Organizing shell pair data                  ... done (  0.0 sec)
Shell pair information
Total number of shell pairs                 ...       136
Shell pairs after pre-screening             ...       133
Total number of primitive shell pairs       ...      1224
Primitive shell pairs kept                  ...       995
          la=0 lb=0:     75 shell pairs
          la=1 lb=0:     48 shell pairs
          la=1 lb=1:     10 shell pairs

Calculating one electron integrals          ... done (  0.0 sec)
Calculating Nuclear repulsion               ... done (  0.2 sec) ENN=    102.978497816149 Eh
Calculating 4-index integrals               ... 
    -> SHARK/Ints2Disk: Thresh =     2.500000e-11 TCut=    2.500000e-12 
    -> calling libint FockFlag=2 Lmax_loc=1
    ->Total LIBINT loop time =    0.000 sec
    -> L=0 0 0 0:     0.003 sec done=      2815 (=100.0%) skipped=         0 
    -> L=1 0 0 0:     0.007 sec done=      3585 (=100.0%) skipped=         0 
    -> L=1 0 1 0:     0.004 sec done=      1175 (=100.0%) skipped=         0 
    -> L=1 1 0 0:     0.002 sec done=       750 (=100.0%) skipped=         0 
    -> L=1 1 1 0:     0.004 sec done=       480 (=100.0%) skipped=         0 
    -> L=1 1 1 1:     0.001 sec done=        55 (=100.0%) skipped=         0 
    ->Total SHARK integral loop time =    0.021 sec
    -> Total Integral generation matrix time =    0.601 sec
    -> Number of small integrals   =      1025
    -> Number of medium integrals  =      2498
    -> Number of large integrals   =     40145
    -> Number of MB stored         =         0 MB


SHARK setup successfully completed in   1.5 seconds

Maximum memory used throughout the entire GTOINT-calculation: 29.5 MB
-------------------------------------------------------------------------------
                                 ORCA SCF
-------------------------------------------------------------------------------

------------
SCF SETTINGS
------------
Hamiltonian:
 Ab initio Hamiltonian  Method          .... Hartree-Fock(GTOs)


General Settings:
 Integral files         IntName         .... acrolien.903
 Hartree-Fock type      HFTyp           .... RHF
 Total Charge           Charge          ....    0
 Multiplicity           Mult            ....    1
 Number of Electrons    NEL             ....   30
 Basis Dimension        Dim             ....   24
 Nuclear Repulsion      ENuc            ....    102.9784978161 Eh

Convergence Acceleration:
 DIIS                   CNVDIIS         .... on
   Start iteration      DIISMaxIt       ....    12
   Startup error        DIISStart       ....  0.200000
   # of expansion vecs  DIISMaxEq       ....     5
   Bias factor          DIISBfac        ....   1.050
   Max. coefficient     DIISMaxC        ....  10.000
 Trust-Rad. Augm. Hess. CNVTRAH         .... auto
   Auto Start mean grad. ratio tolernc. ....  1.125000
   Auto Start start iteration           ....    20
   Auto Start num. interpolation iter.  ....    10
   Max. Number of Micro iterations      ....    16
   Max. Number of Macro iterations      .... Maxiter - #DIIS iter
   Number of Davidson start vectors     ....     2
   Converg. threshold I  (grad. norm)   ....   1.000e-05
   Converg. threshold II (energy diff.) ....   1.000e-08
   Grad. Scal. Fac. for Micro threshold ....   0.100
   Minimum threshold for Micro iter.    ....   0.010
   NR start threshold (gradient norm)   ....   0.001
   Initial trust radius                 ....   0.400
   Minimum AH scaling param. (alpha)    ....   1.000
   Maximum AH scaling param. (alpha)    .... 1000.000
   Orbital update algorithm             .... Taylor
   White noise on init. David. guess    .... on
   Maximum white noise                  ....   0.010
   Quad. conv. algorithm                .... NR
 SOSCF                  CNVSOSCF        .... on
   Start iteration      SOSCFMaxIt      ....   150
   Startup grad/error   SOSCFStart      ....  0.003300
 Level Shifting         CNVShift        .... on
   Level shift para.    LevelShift      ....    0.2500
   Turn off err/grad.   ShiftErr        ....    0.0010
 Zerner damping         CNVZerner       .... off
 Static damping         CNVDamp         .... on
   Fraction old density DampFac         ....    0.7000
   Max. Damping (<1)    DampMax         ....    0.9800
   Min. Damping (>=0)   DampMin         ....    0.0000
   Turn off err/grad.   DampErr         ....    0.1000
 Fernandez-Rico         CNVRico         .... off

SCF Procedure:
 Maximum # iterations   MaxIter         ....   500
 SCF integral mode      SCFMode         .... Conventional
 Integral Threshold     Thresh          ....  2.500e-11 Eh
 Primitive CutOff       TCut            ....  2.500e-12 Eh
 Integral Buffer length BufferLength    .... 1048576
 Integral index format  IndFormat       ....     0
 Integral value format  ValFormat       ....     0
 Integral Storage       Thresh          ....  2.500e-11 Eh

Convergence Tolerance:
 Convergence Check Mode ConvCheckMode   .... Total+1el-Energy
 Convergence forced     ConvForced      .... 1
 Energy Change          TolE            ....  1.000e-08 Eh
 1-El. energy change                    ....  1.000e-05 Eh
 Orbital Gradient       TolG            ....  1.000e-05
 Orbital Rotation angle TolX            ....  1.000e-05
 DIIS Error             TolErr          ....  5.000e-07


Diagonalization of the overlap matrix:
Smallest eigenvalue                        ... 2.011e-01
Time for diagonalization                   ...    0.000 sec
Threshold for overlap eigenvalues          ... 1.000e-08
Number of eigenvalues below threshold      ... 0
Time for construction of square roots      ...    0.380 sec
Total time needed                          ...    0.381 sec

--------------------------------
INITIAL GUESS: MINIMAL BASIS EHT
--------------------------------
The minimal basis has 24 functions
EHT matrix was diagonalized
Basis set overlap was calculated now projecting the orbitals
Using GuessMode=FMatrix for the initial guess
C*T matrix was formed
Effective Fockian was calculated
Effective Fockian was diagonalized
Initial density was built
                      ------------------
                      INITIAL GUESS DONE
                      ------------------

 InCore treatment chosen:
   Memory dedicated               ...    1024 MB
   Memory needed                  ...      0 MB
   Number of tiny    integrals    ...    1025
   Number of small   integrals    ...    2498
   Number of regular integrals    ...   40145

--------------
SCF ITERATIONS
--------------
ITER       Energy         Delta-E        Max-DP      RMS-DP      [F,P]     Damp
  0   -189.0239862650   0.000000000000 0.12243983  0.01465538  0.2553751 0.7000
  1   -189.1397147215  -0.115728456515 0.09716477  0.01178326  0.1856278 0.7000
                               ***Turning on DIIS***
  2   -189.2132146852  -0.073499963677 0.06072962  0.00755623  0.1342085 0.7000
  3   -189.3079258032  -0.094711117977 0.11366026  0.01422101  0.0968302 0.0000
  4   -189.3735854409  -0.065659637755 0.01692750  0.00184195  0.0076202 0.0000
  5   -189.3727817532   0.000803687750 0.00641522  0.00080253  0.0041445 0.0000
                      *** Initiating the SOSCF procedure ***
                           *** Shutting down DIIS ***
                      *** Re-Reading the Fockian *** 
                      *** Removing any level shift *** 
ITER      Energy       Delta-E        Grad      Rot      Max-DP    RMS-DP
  6   -189.37167642   0.0011053297  0.001461  0.001461  0.002775  0.000388
  7   -189.37379726  -0.0021208377  0.000489  0.000744  0.000787  0.000120
  8   -189.37380053  -0.0000032655  0.000153  0.000466  0.000975  0.000113
  9   -189.37380139  -0.0000008659  0.000076  0.000097  0.000171  0.000021
 10   -189.37380145  -0.0000000548  0.000025  0.000040  0.000057  0.000008
 11   -189.37380146  -0.0000000126  0.000013  0.000054  0.000078  0.000009
                 **** Energy Check signals convergence ****
              ***Rediagonalizing the Fockian in SOSCF/NRSCF***

               *****************************************************
               *                     SUCCESS                       *
               *           SCF CONVERGED AFTER  12 CYCLES          *
               *****************************************************


----------------
TOTAL SCF ENERGY
----------------

Total Energy       :         -189.37380146 Eh           -5153.12312 eV

Components:
Nuclear Repulsion  :          102.97849782 Eh            2802.18739 eV
Electronic Energy  :         -292.35229928 Eh           -7955.31050 eV
One Electron Energy:         -460.79403318 Eh          -12538.84311 eV
Two Electron Energy:          168.44173390 Eh            4583.53260 eV

Virial components:
Potential Energy   :         -378.51588429 Eh          -10299.94085 eV
Kinetic Energy     :          189.14208283 Eh            5146.81773 eV
Virial Ratio       :            2.00122510


---------------
SCF CONVERGENCE
---------------

  Last Energy change         ...   -4.2032e-09  Tolerance :   1.0000e-08
  Last MAX-Density change    ...    2.8692e-05  Tolerance :   1.0000e-07
  Last RMS-Density change    ...    2.3503e-06  Tolerance :   5.0000e-09
  Last Orbital Gradient      ...    5.1992e-06  Tolerance :   1.0000e-05
  Last Orbital Rotation      ...    1.7185e-05  Tolerance :   1.0000e-05

             **** THE GBW FILE WAS UPDATED (acrolien.903.gbw) ****
             **** DENSITY acrolien.903.scfp WAS UPDATED ****
             **** ENERGY FILE WAS UPDATED (acrolien.903.en.tmp) ****
             **** THE GBW FILE WAS UPDATED (acrolien.903.gbw) ****
             **** DENSITY acrolien.903.scfp WAS UPDATED ****
----------------
ORBITAL ENERGIES
----------------

  NO   OCC          E(Eh)            E(eV) 
   0   2.0000     -20.364489      -554.1459 
   1   2.0000     -11.300208      -307.4943 
   2   2.0000     -11.187369      -304.4238 
   3   2.0000     -11.183819      -304.3272 
   4   2.0000      -1.396893       -38.0114 
   5   2.0000      -1.068829       -29.0843 
   6   2.0000      -0.892779       -24.2938 
   7   2.0000      -0.800570       -21.7846 
   8   2.0000      -0.665521       -18.1097 
   9   2.0000      -0.651239       -17.7211 
  10   2.0000      -0.575423       -15.6580 
  11   2.0000      -0.541265       -14.7286 
  12   2.0000      -0.530622       -14.4390 
  13   2.0000      -0.423961       -11.5366 
  14   2.0000      -0.372299       -10.1308 
  15   0.0000       0.115885         3.1534 
  16   0.0000       0.283159         7.7051 
  17   0.0000       0.506992        13.7959 
  18   0.0000       0.624297        16.9880 
  19   0.0000       0.682912        18.5830 
  20   0.0000       0.756841        20.5947 
  21   0.0000       0.787584        21.4313 
  22   0.0000       0.946034        25.7429 
  23   0.0000       1.011865        27.5343 

                    ********************************
                    * MULLIKEN POPULATION ANALYSIS *
                    ********************************

-----------------------
MULLIKEN ATOMIC CHARGES
-----------------------
   0 C :    0.134181
   1 O :   -0.336005
   2 C :   -0.162435
   3 C :   -0.214640
   4 H :    0.142948
   5 H :    0.155236
   6 H :    0.143713
   7 H :    0.137002
Sum of atomic charges:    0.0000000

--------------------------------
MULLIKEN REDUCED ORBITAL CHARGES
--------------------------------
  0 C s       :     3.048533  s :     3.048533
      pz      :     0.986829  p :     2.817286
      px      :     0.864072
      py      :     0.966384
  1 O s       :     3.839289  s :     3.839289
      pz      :     1.494105  p :     4.496716
      px      :     1.517401
      py      :     1.485211
  2 C s       :     3.100768  s :     3.100768
      pz      :     1.057123  p :     3.061667
      px      :     0.967567
      py      :     1.036978
  3 C s       :     3.170592  s :     3.170592
      pz      :     0.992188  p :     3.044048
      px      :     1.033664
      py      :     1.018197
  4 H s       :     0.857052  s :     0.857052
  5 H s       :     0.844764  s :     0.844764
  6 H s       :     0.856287  s :     0.856287
  7 H s       :     0.862998  s :     0.862998


                     *******************************
                     * LOEWDIN POPULATION ANALYSIS *
                     *******************************

----------------------
LOEWDIN ATOMIC CHARGES
----------------------
   0 C :    0.133070
   1 O :   -0.247298
   2 C :   -0.119066
   3 C :   -0.120462
   4 H :    0.070498
   5 H :    0.098443
   6 H :    0.104465
   7 H :    0.080349

-------------------------------
LOEWDIN REDUCED ORBITAL CHARGES
-------------------------------
  0 C s       :     2.959424  s :     2.959424
      pz      :     0.994206  p :     2.907506
      px      :     0.938089
      py      :     0.975211
  1 O s       :     3.711833  s :     3.711833
      pz      :     1.503420  p :     4.535465
      px      :     1.545402
      py      :     1.486643
  2 C s       :     2.988087  s :     2.988087
      pz      :     1.059979  p :     3.130978
      px      :     1.025725
      py      :     1.045274
  3 C s       :     3.039568  s :     3.039568
      pz      :     0.998558  p :     3.080893
      px      :     1.064452
      py      :     1.017884
  4 H s       :     0.929502  s :     0.929502
  5 H s       :     0.901557  s :     0.901557
  6 H s       :     0.895535  s :     0.895535
  7 H s       :     0.919651  s :     0.919651


                      *****************************
                      * MAYER POPULATION ANALYSIS *
                      *****************************

  NA   - Mulliken gross atomic population
  ZA   - Total nuclear charge
  QA   - Mulliken gross atomic charge
  VA   - Mayer's total valence
  BVA  - Mayer's bonded valence
  FA   - Mayer's free valence

  ATOM       NA         ZA         QA         VA         BVA        FA
  0 C      5.8658     6.0000     0.1342     3.8924     3.8924     0.0000
  1 O      8.3360     8.0000    -0.3360     2.0427     2.0427     0.0000
  2 C      6.1624     6.0000    -0.1624     3.9711     3.9711     0.0000
  3 C      6.2146     6.0000    -0.2146     3.9441     3.9441     0.0000
  4 H      0.8571     1.0000     0.1429     0.9796     0.9796     0.0000
  5 H      0.8448     1.0000     0.1552     0.9759     0.9759     0.0000
  6 H      0.8563     1.0000     0.1437     0.9793     0.9793     0.0000
  7 H      0.8630     1.0000     0.1370     0.9812     0.9812     0.0000

  Mayer bond orders larger than 0.100000
B(  0-C ,  1-O ) :   1.8851 B(  0-C ,  2-C ) :   1.0567 B(  0-C ,  4-H ) :   0.9362 
B(  2-C ,  3-C ) :   1.9147 B(  2-C ,  5-H ) :   0.9603 B(  3-C ,  6-H ) :   0.9635 
B(  3-C ,  7-H ) :   0.9719 

-------
TIMINGS
-------

Total SCF time: 0 days 0 hours 0 min 4 sec 

Total time                  ....       4.731 sec
Sum of individual times     ....       1.008 sec  ( 21.3%)

Fock matrix formation       ....       0.102 sec  (  2.1%)
Diagonalization             ....       0.306 sec  (  6.5%)
Density matrix formation    ....       0.000 sec  (  0.0%)
Population analysis         ....       0.456 sec  (  9.6%)
Initial guess               ....       0.002 sec  (  0.0%)
Orbital Transformation      ....       0.000 sec  (  0.0%)
Orbital Orthonormalization  ....       0.000 sec  (  0.0%)
DIIS solution               ....       0.001 sec  (  0.0%)
SOSCF solution              ....       0.141 sec  (  3.0%)

Maximum memory used throughout the entire SCF-calculation: 224.9 MB
------------------------------------------------------------------------------
                         ORCA CIS CALCULATION
------------------------------------------------------------------------------

Input orbitals are from        ... acrolien.903.gbw
CI-vector output               ... acrolien.903.cis
Tamm-Dancoff approximation     ... operative
CIS-Integral strategy          ... AO-integrals
Integral handling              ... AO integral Conventional
Reference state                ... RHF
Generation of triplets         ... off
Follow IRoot                   ... off
Number of operators            ... 1
Orbital ranges used for CIS calculation:
 Operator 0:  Orbitals   4... 14  to  15... 23
XAS localization array:
 Operator 0:  Orbitals  -1... -1

------------------------
DAVIDSON-DIAGONALIZATION
------------------------

Dimension of the eigenvalue problem            ...     99
Number of roots to be determined               ...      1
Maximum size of the expansion space            ...     10
Maximum number of iterations                   ...    100
Convergence tolerance for the residual         ...    2.500e-07
Convergence tolerance for the energies         ...    2.500e-07
Orthogonality tolerance                        ...    1.000e-14
Level Shift                                    ...    0.000e+00
Constructing the preconditioner                ... o.k.
Building the initial guess                     ... o.k.
Number of trial vectors determined             ...     10


                       ****Iteration    0****

   Memory handling for direct AO based CIS:
   Memory per vector needed      ...     1 MB
   Memory needed                 ...     0 MB
   Memory available              ...   512 MB
   Number of vectors per batch   ...   512
   Number of batches             ...     1
   Time for densities:            0.001
   SHARK[4]
   Time for Sigma-Completion:     0.000
   Size of expansion space: 3
   Lowest Energy          :     0.205050486320
   Maximum Energy change  :     0.205050486320 (vector 0)
   Maximum residual norm  :     0.016899731224

                       ****Iteration    1****
   Time for densities:            0.000
   SHARK[4]
   Time for Sigma-Completion:     0.000
   Size of expansion space: 4
   Lowest Energy          :     0.143445597482
   Maximum Energy change  :     0.061604888839 (vector 0)
   Maximum residual norm  :     0.001375874485

                       ****Iteration    2****
   Time for densities:            0.004
   SHARK[4]
   Time for Sigma-Completion:     0.000
   Size of expansion space: 5
   Lowest Energy          :     0.139441898744
   Maximum Energy change  :     0.004003698737 (vector 0)
   Maximum residual norm  :     0.000117374938

                       ****Iteration    3****
   Time for densities:            0.000
   SHARK[4]
   Time for Sigma-Completion:     0.000
   Size of expansion space: 6
   Lowest Energy          :     0.139211228143
   Maximum Energy change  :     0.000230670602 (vector 0)
   Maximum residual norm  :     0.000013082128

                       ****Iteration    4****
   Time for densities:            0.000
   SHARK[4]
   Time for Sigma-Completion:     0.000
   Size of expansion space: 7
   Lowest Energy          :     0.139186678325
   Maximum Energy change  :     0.000024549818 (vector 0)
   Maximum residual norm  :     0.000001307425

                       ****Iteration    5****
   Time for densities:            0.000
   SHARK[4]
   Time for Sigma-Completion:     0.000
   Size of expansion space: 8
   Lowest Energy          :     0.139184424095
   Maximum Energy change  :     0.000002254230 (vector 0)
   Maximum residual norm  :     0.000000125923

      *** CONVERGENCE OF RESIDUAL NORM REACHED ***

Storing the converged CI vectors               ... acrolien.903.cis1

                 *** DAVIDSON DONE ***

Total time for solving the CIS problem:     2.010sec

-----------------------------
CIS-EXCITED STATES (SINGLETS)
-----------------------------

the weight of the individual excitations are printed if larger than 1.0e-02

STATE  1:  E=   0.139184 au      3.787 eV    30547.5 cm**-1 <S**2> =   0.000000
     8a ->  15a  :     0.010732 (c=  0.10359561)
    13a ->  15a  :     0.768931 (c= -0.87688704)
    13a ->  16a  :     0.191196 (c= -0.43725920)


----------------------
CIS-EXCITATION SPECTRA
----------------------

Center of mass = ( -1.0956, -0.1099, -0.4065)
Calculating the Dipole integrals                  ... done
Transforming integrals                            ... done
Calculating the Linear Momentum integrals         ... done
Transforming integrals                            ... done
Calculating angular momentum integrals            ... done
Transforming integrals                            ... done

-----------------------------------------------------------------------------
         ABSORPTION SPECTRUM VIA TRANSITION ELECTRIC DIPOLE MOMENTS
-----------------------------------------------------------------------------
State   Energy    Wavelength  fosc         T2        TX        TY        TZ  
        (cm-1)      (nm)                 (au**2)    (au)      (au)      (au) 
-----------------------------------------------------------------------------
   1   30547.5    327.4   0.000100656   0.00108   0.02398   0.02257  -0.00066

-----------------------------------------------------------------------------
         ABSORPTION SPECTRUM VIA TRANSITION VELOCITY DIPOLE MOMENTS
-----------------------------------------------------------------------------
State   Energy    Wavelength   fosc        P2         PX        PY        PZ  
        (cm-1)      (nm)                 (au**2)     (au)      (au)      (au) 
-----------------------------------------------------------------------------
   1   30547.5    327.4   0.000769422   0.00016  -0.00618   0.00814   0.00750

-------------------------------------------------------------------
                             CD SPECTRUM
-------------------------------------------------------------------
State  Energy     Wavelength     R         MX        MY        MZ   
       (cm-1)       (nm)     (1e40*cgs)   (au)      (au)      (au)  
-------------------------------------------------------------------
   1   30547.5    327.4      4.56037   0.44181  -0.03326   0.25500

-------------------------------------------------------------------
         CD SPECTRUM VIA TRANSITION VELOCITY DIPOLE MOMENTS        
-------------------------------------------------------------------
State  Energy     Wavelength     R         MX        MY        MZ   
       (cm-1)       (nm)     (1e40*cgs)   (au)      (au)      (au)  
-------------------------------------------------------------------
   1   30547.5    327.4     -3.69500   0.44181  -0.03326   0.25500

Total run time:        2.873 sec

           *** ORCA-CIS/TD-DFT FINISHED WITHOUT ERROR ***

Maximum memory used throughout the entire CIS-calculation: 51.7 MB

-----------------------
CIS/TD-DFT TOTAL ENERGY
-----------------------

    E(SCF)  =   -189.373801464 Eh
    DE(CIS) =      0.139184424 Eh (Root  1)
    ----------------------------- ---------
    E(tot)  =   -189.234617040 Eh



-------------------------------------------------------------------------------
                          DFT DISPERSION CORRECTION                            
                                                                               
                              DFTD3 V3.1  Rev 1                                
                          USING Becke-Johnson damping                          
-------------------------------------------------------------------------------
Hartree-Fock is recognized
Active option DFTDOPT                   ...         4   

molecular C6(AA) [au] = 661.490958 


            DFT-D V3
 parameters
 using HF/MINIX parameters
 s6 scaling factor         :     1.0000 
 a1 scaling factor         :     0.4171 
 s8 scaling factor         :     0.8777 
 a2 scaling factor         :     2.9149 
 ad hoc parameters k1-k3   :    16.0000     1.3333    -4.0000 

 Edisp/kcal,au: -16.156924433448  -0.025747695258 
 E6   /kcal   :  -8.948443808 
 E8   /kcal   :  -7.208480625 
 % E8         :  44.615425758 

-------------------------   ----------------
Dispersion correction           -0.025747695
-------------------------   ----------------

------------------   -----------------
gCP+bas correction        -0.045082701
------------------   -----------------
----------------------------   ----------------
Total correction to HF/MINIX       -0.070830396
----------------------------   ----------------


-------------------------   --------------------
FINAL SINGLE POINT ENERGY      -189.305447436241
-------------------------   --------------------


                            ***************************************
                            *     ORCA property calculations      *
                            ***************************************

                                    ---------------------
                                    Active property flags
                                    ---------------------
   (+) Dipole Moment


------------------------------------------------------------------------------
                       ORCA ELECTRIC PROPERTIES CALCULATION
------------------------------------------------------------------------------

Dipole Moment Calculation                       ... on
Quadrupole Moment Calculation                   ... off
Polarizability Calculation                      ... off
GBWName                                         ... acrolien.903.gbw
Electron density                                ... acrolien.903.scfp
The origin for moment calculation is the CENTER OF MASS  = (-1.095640, -0.109894 -0.406453)

-------------
DIPOLE MOMENT
-------------
                                X             Y             Z
Electronic contribution:     -3.12071      -0.48174      -1.09836
Nuclear contribution   :      4.13845       0.41715       1.67372
                        -----------------------------------------
Total Dipole Moment    :      1.01774      -0.06459       0.57536
                        -----------------------------------------
Magnitude (a.u.)       :      1.17090
Magnitude (Debye)      :      2.97619



--------------------
Rotational spectrum 
--------------------
 
Rotational constants in cm-1:     1.474112     0.158161     0.143056 
Rotational constants in MHz : 44192.777435  4741.537466  4288.724504 

 Dipole components along the rotational axes: 
x,y,z [a.u.] :     1.093216     0.411979    -0.078452 
x,y,z [Debye]:     2.778734     1.047167    -0.199408 

 

Timings for individual modules:

Sum of individual times         ...        9.896 sec (=   0.165 min)
GTO integral calculation        ...        1.888 sec (=   0.031 min)  19.1 %
SCF iterations                  ...        5.019 sec (=   0.084 min)  50.7 %
CIS module                      ...        2.989 sec (=   0.050 min)  30.2 %
                             ****ORCA TERMINATED NORMALLY****
TOTAL RUN TIME: 0 days 0 hours 0 minutes 11 seconds 888 msec
