
                                 *****************
                                 * O   R   C   A *
                                 *****************

                                            #,                                       
                                            ###                                      
                                            ####                                     
                                            #####                                    
                                            ######                                   
                                           ########,                                 
                                     ,,################,,,,,                         
                               ,,#################################,,                 
                          ,,##########################################,,             
                       ,#########################################, ''#####,          
                    ,#############################################,,   '####,        
                  ,##################################################,,,,####,       
                ,###########''''           ''''###############################       
              ,#####''   ,,,,##########,,,,          '''####'''          '####       
            ,##' ,,,,###########################,,,                        '##       
           ' ,,###''''                  '''############,,,                           
         ,,##''                                '''############,,,,        ,,,,,,###''
      ,#''                                            '''#######################'''  
     '                                                          ''''####''''         
             ,#######,   #######,   ,#######,      ##                                
            ,#'     '#,  ##    ##  ,#'     '#,    #''#        ######   ,####,        
            ##       ##  ##   ,#'  ##            #'  '#       #        #'  '#        
            ##       ##  #######   ##           ,######,      #####,   #    #        
            '#,     ,#'  ##    ##  '#,     ,#' ,#      #,         ##   #,  ,#        
             '#######'   ##     ##  '#######'  #'      '#     #####' # '####'        



                  #######################################################
                  #                        -***-                        #
                  #          Department of theory and spectroscopy      #
                  #    Directorship and core code : Frank Neese         #
                  #        Max Planck Institute fuer Kohlenforschung    #
                  #                Kaiser Wilhelm Platz 1               #
                  #                 D-45470 Muelheim/Ruhr               #
                  #                      Germany                        #
                  #                                                     #
                  #                  All rights reserved                #
                  #                        -***-                        #
                  #######################################################


                         Program Version 5.0.3 -  RELEASE  -


 With contributions from (in alphabetic order):
   Daniel Aravena         : Magnetic Suceptibility
   Michael Atanasov       : Ab Initio Ligand Field Theory (pilot matlab implementation)
   Alexander A. Auer      : GIAO ZORA, VPT2 properties, NMR spectrum
   Ute Becker             : Parallelization
   Giovanni Bistoni       : ED, misc. LED, open-shell LED, HFLD
   Martin Brehm           : Molecular dynamics
   Dmytro Bykov           : SCF Hessian
   Vijay G. Chilkuri      : MRCI spin determinant printing, contributions to CSF-ICE
   Dipayan Datta          : RHF DLPNO-CCSD density
   Achintya Kumar Dutta   : EOM-CC, STEOM-CC
   Dmitry Ganyushin       : Spin-Orbit,Spin-Spin,Magnetic field MRCI
   Miquel Garcia          : C-PCM and meta-GGA Hessian, CC/C-PCM, Gaussian charge scheme
   Yang Guo               : DLPNO-NEVPT2, F12-NEVPT2, CIM, IAO-localization
   Andreas Hansen         : Spin unrestricted coupled pair/coupled cluster methods
   Benjamin Helmich-Paris : MC-RPA, TRAH-SCF, COSX integrals
   Lee Huntington         : MR-EOM, pCC
   Robert Izsak           : Overlap fitted RIJCOSX, COSX-SCS-MP3, EOM
   Marcus Kettner         : VPT2
   Christian Kollmar      : KDIIS, OOCD, Brueckner-CCSD(T), CCSD density, CASPT2, CASPT2-K
   Simone Kossmann        : Meta GGA functionals, TD-DFT gradient, OOMP2, MP2 Hessian
   Martin Krupicka        : Initial AUTO-CI
   Lucas Lang             : DCDCAS
   Marvin Lechner         : AUTO-CI (C++ implementation), FIC-MRCC
   Dagmar Lenk            : GEPOL surface, SMD
   Dimitrios Liakos       : Extrapolation schemes; Compound Job, initial MDCI parallelization
   Dimitrios Manganas     : Further ROCIS development; embedding schemes
   Dimitrios Pantazis     : SARC Basis sets
   Anastasios Papadopoulos: AUTO-CI, single reference methods and gradients
   Taras Petrenko         : DFT Hessian,TD-DFT gradient, ASA, ECA, R-Raman, ABS, FL, XAS/XES, NRVS
   Peter Pinski           : DLPNO-MP2, DLPNO-MP2 Gradient
   Christoph Reimann      : Effective Core Potentials
   Marius Retegan         : Local ZFS, SOC
   Christoph Riplinger    : Optimizer, TS searches, QM/MM, DLPNO-CCSD(T), (RO)-DLPNO pert. Triples
   Tobias Risthaus        : Range-separated hybrids, TD-DFT gradient, RPA, STAB
   Michael Roemelt        : Original ROCIS implementation
   Masaaki Saitow         : Open-shell DLPNO-CCSD energy and density
   Barbara Sandhoefer     : DKH picture change effects
   Avijit Sen             : IP-ROCIS
   Kantharuban Sivalingam : CASSCF convergence, NEVPT2, FIC-MRCI
   Bernardo de Souza      : ESD, SOC TD-DFT
   Georgi Stoychev        : AutoAux, RI-MP2 NMR, DLPNO-MP2 response
   Willem Van den Heuvel  : Paramagnetic NMR
   Boris Wezisla          : Elementary symmetry handling
   Frank Wennmohs         : Technical directorship


 We gratefully acknowledge several colleagues who have allowed us to
 interface, adapt or use parts of their codes:
   Stefan Grimme, W. Hujo, H. Kruse, P. Pracht,  : VdW corrections, initial TS optimization,
                  C. Bannwarth, S. Ehlert          DFT functionals, gCP, sTDA/sTD-DF
   Ed Valeev, F. Pavosevic, A. Kumar             : LibInt (2-el integral package), F12 methods
   Garnet Chan, S. Sharma, J. Yang, R. Olivares  : DMRG
   Ulf Ekstrom                                   : XCFun DFT Library
   Mihaly Kallay                                 : mrcc  (arbitrary order and MRCC methods)
   Jiri Pittner, Ondrej Demel                    : Mk-CCSD
   Frank Weinhold                                : gennbo (NPA and NBO analysis)
   Christopher J. Cramer and Donald G. Truhlar   : smd solvation model
   Lars Goerigk                                  : TD-DFT with DH, B97 family of functionals
   V. Asgeirsson, H. Jonsson                     : NEB implementation
   FAccTs GmbH                                   : IRC, NEB, NEB-TS, DLPNO-Multilevel, CI-OPT
                                                   MM, QMMM, 2- and 3-layer-ONIOM, Crystal-QMMM,
                                                   LR-CPCM, SF, NACMEs, symmetry and pop. for TD-DFT,
                                                   nearIR, NL-DFT gradient (VV10), updates on ESD,
                                                   ML-optimized integration grids
   S Lehtola, MJT Oliveira, MAL Marques          : LibXC Library
   Liviu Ungur et al                             : ANISO software


 Your calculation uses the libint2 library for the computation of 2-el integrals
 For citations please refer to: http://libint.valeyev.net

 Your ORCA version has been built with support for libXC version: 5.1.0
 For citations please refer to: https://tddft.org/programs/libxc/

 This ORCA versions uses:
   CBLAS   interface :  Fast vector & matrix operations
   LAPACKE interface :  Fast linear algebra routines
   SCALAPACK package :  Parallel linear algebra routines
   Shared memory     :  Shared parallel matrices
   BLAS/LAPACK       :  OpenBLAS 0.3.15  USE64BITINT DYNAMIC_ARCH NO_AFFINITY Haswell SINGLE_THREADED
        Core in use  :  Haswell
   Copyright (c) 2011-2014, The OpenBLAS Project


================================================================================

----- Orbital basis set information -----
Your calculation utilizes the basis: cc-pVDZ 
       H, B-Ne : Obtained from the ccRepo (grant-hill.group.shef.ac.uk/ccrepo) Feb. 2017
                 T. H. Dunning, Jr., J. Chem. Phys. 90, 1007 (1989)
            He : Obtained from the ccRepo (grant-hill.group.shef.ac.uk/ccrepo) Feb. 2017
                 D. E. Woon, T. H. Dunning, Jr., J. Chem. Phys. 100, 2975 (1994)
  Li-Be, Na-Mg : Obtained from the ccRepo (grant-hill.group.shef.ac.uk/ccrepo) Feb. 2017
                 B. P. Prascher, D. E. Woon, K. A. Peterson, T. H. Dunning, Jr., A. K. Wilson, Theor. Chem. Acc. 128, 69 (2011)
         Al-Ar : Obtained from the ccRepo (grant-hill.group.shef.ac.uk/ccrepo) Feb. 2017
                 D. E. Woon, T. H. Dunning, Jr., J. Chem. Phys. 98, 1358 (1993)
            Ca : Obtained from the Peterson Research Group Website (tyr0.chem.wsu.edu/~kipeters) Feb. 2017
                 J. Koput, K. A. Peterson, J. Phys. Chem. 106, 9595 (2002)
         Sc-Zn : Obtained from the ccRepo (grant-hill.group.shef.ac.uk/ccrepo) Feb. 2017
                 N. B. Balabanov, K. A. Peterson, J. Chem. Phys. 123, 064107 (2005)
                 N. B. Balabanov, K. A. Peterson, J. Chem. Phys. 125, 074110 (2006)
         Ga-Kr : Obtained from the ccRepo (grant-hill.group.shef.ac.uk/ccrepo) Feb. 2017
                 A. K. Wilson, D. E. Woon, K. A. Peterson, T. H. Dunning, Jr., J. Chem. Phys. 110, 7667 (1999)

----- AuxJ basis set information -----
Your calculation utilizes the auxiliary basis: def2/J
   F. Weigend, Phys. Chem. Chem. Phys. 8, 1057 (2006).

================================================================================
                                        WARNINGS
                       Please study these warnings very carefully!
================================================================================

INFO   : Checking CIS options ...

INFO   : the flag for use of the SHARK integral package has been found!

================================================================================
                                       INPUT FILE
================================================================================
NAME = acrolien.708.com
|  1> ! B3LYP cc-pVDZ
|  2> !TightSCF
|  3> %scf
|  4>  ConvForced true
|  5>  convergence tight
|  6>  MaxIter 500
|  7> end
|  8>  
|  9> %tddft 
| 10>  nroots 1
| 11> end
| 12> 
| 13> # 	23673
| 14> * xyz 0 1
| 15> 		C   -0.527828  -0.446593   0.031333
| 16> 		O   -0.528127  -1.572617  -0.023843
| 17> 		C    0.555612   0.468494  -0.067883
| 18> 		C    1.813520  -0.233748   0.008693
| 19> 		H   -1.471292   0.086584   0.327333
| 20> 		H    0.472768   1.564621   0.029679
| 21> 		H    1.666937  -1.275075   0.232227
| 22> 		H    2.717807   0.341786   0.120154
| 23> *
| 24> 
| 25>                          ****END OF INPUT****
================================================================================

                       ****************************
                       * Single Point Calculation *
                       ****************************

---------------------------------
CARTESIAN COORDINATES (ANGSTROEM)
---------------------------------
  C     -0.527828   -0.446593    0.031333
  O     -0.528127   -1.572617   -0.023843
  C      0.555612    0.468494   -0.067883
  C      1.813520   -0.233748    0.008693
  H     -1.471292    0.086584    0.327333
  H      0.472768    1.564621    0.029679
  H      1.666937   -1.275075    0.232227
  H      2.717807    0.341786    0.120154

----------------------------
CARTESIAN COORDINATES (A.U.)
----------------------------
  NO LB      ZA    FRAG     MASS         X           Y           Z
   0 C     6.0000    0    12.011   -0.997450   -0.843938    0.059211
   1 O     8.0000    0    15.999   -0.998015   -2.971815   -0.045057
   2 C     6.0000    0    12.011    1.049955    0.885325   -0.128280
   3 C     6.0000    0    12.011    3.427056   -0.441720    0.016427
   4 H     1.0000    0     1.008   -2.780339    0.163620    0.618570
   5 H     1.0000    0     1.008    0.893402    2.956705    0.056085
   6 H     1.0000    0     1.008    3.150054   -2.409543    0.438845
   7 H     1.0000    0     1.008    5.135911    0.645882    0.227058

--------------------------------
INTERNAL COORDINATES (ANGSTROEM)
--------------------------------
 C      0   0   0     0.000000000000     0.00000000     0.00000000
 O      1   0   0     1.127375061350     0.00000000     0.00000000
 C      1   2   0     1.421643508699   129.76927002     0.00000000
 C      3   1   2     1.442685082339   110.33271791   348.24727968
 H      1   2   3     1.123395759572   119.12495868   188.37606325
 H      3   1   2     1.103574135393   125.16680184   182.06263751
 H      4   3   1     1.075088808413   111.32319701   353.70810618
 H      4   3   1     1.077681733187   118.50066263   190.51269953

---------------------------
INTERNAL COORDINATES (A.U.)
---------------------------
 C      0   0   0     0.000000000000     0.00000000     0.00000000
 O      1   0   0     2.130430116163     0.00000000     0.00000000
 C      1   2   0     2.686516891507   129.76927002     0.00000000
 C      3   1   2     2.726279703115   110.33271791   348.24727968
 H      1   2   3     2.122910325600   119.12495868   188.37606325
 H      3   1   2     2.085452884372   125.16680184   182.06263751
 H      4   3   1     2.031623417544   111.32319701   353.70810618
 H      4   3   1     2.036523335254   118.50066263   190.51269953

---------------------
BASIS SET INFORMATION
---------------------
There are 3 groups of distinct atoms

 Group   1 Type C   : 17s4p1d contracted to 3s2p1d pattern {881/31/1}
 Group   2 Type O   : 17s4p1d contracted to 3s2p1d pattern {881/31/1}
 Group   3 Type H   : 4s1p contracted to 2s1p pattern {31/1}

Atom   0C    basis set group =>   1
Atom   1O    basis set group =>   2
Atom   2C    basis set group =>   1
Atom   3C    basis set group =>   1
Atom   4H    basis set group =>   3
Atom   5H    basis set group =>   3
Atom   6H    basis set group =>   3
Atom   7H    basis set group =>   3
---------------------------------
AUXILIARY/J BASIS SET INFORMATION
---------------------------------
There are 3 groups of distinct atoms

 Group   1 Type C   : 12s5p4d2f1g contracted to 6s4p3d1f1g pattern {711111/2111/211/2/1}
 Group   2 Type O   : 12s5p4d2f1g contracted to 6s4p3d1f1g pattern {711111/2111/211/2/1}
 Group   3 Type H   : 5s2p1d contracted to 3s1p1d pattern {311/2/1}

Atom   0C    basis set group =>   1
Atom   1O    basis set group =>   2
Atom   2C    basis set group =>   1
Atom   3C    basis set group =>   1
Atom   4H    basis set group =>   3
Atom   5H    basis set group =>   3
Atom   6H    basis set group =>   3
Atom   7H    basis set group =>   3
------------------------------------------------------------------------------
                           ORCA GTO INTEGRAL CALCULATION
                           -- RI-GTO INTEGRALS CHOSEN --
------------------------------------------------------------------------------
------------------------------------------------------------------------------
                   ___                                                        
                  /   \      - P O W E R E D   B Y -                         
                 /     \                                                     
                 |  |  |   _    _      __       _____    __    __             
                 |  |  |  | |  | |    /  \     |  _  \  |  |  /  |          
                  \  \/   | |  | |   /    \    | | | |  |  | /  /          
                 / \  \   | |__| |  /  /\  \   | |_| |  |  |/  /          
                |  |  |   |  __  | /  /__\  \  |    /   |      \           
                |  |  |   | |  | | |   __   |  |    \   |  |\   \          
                \     /   | |  | | |  |  |  |  | |\  \  |  | \   \       
                 \___/    |_|  |_| |__|  |__|  |_| \__\ |__|  \__/        
                                                                              
                      - O R C A' S   B I G   F R I E N D -                    
                                      &                                       
                       - I N T E G R A L  F E E D E R -                       
                                                                              
 v1 FN, 2020, v2 2021                                                         
------------------------------------------------------------------------------


Reading SHARK input file acrolien.708.SHARKINP.tmp ... ok
----------------------
SHARK INTEGRAL PACKAGE
----------------------

Number of atoms                             ...      8
Number of basis functions                   ...    100
Number of shells                            ...     60
Maximum angular momentum                    ...      2
Integral batch strategy                     ... SHARK/LIBINT Hybrid
RI-J (if used) integral strategy            ... SPLIT-RIJ (Revised 2003 algorithm where possible)
Printlevel                                  ...      1
Contraction scheme used                     ... PARTIAL GENERAL contraction
Coulomb Range Separation                    ... NOT USED
Exchange Range Separation                   ... NOT USED
Finite Nucleus Model                        ... NOT USED
Auxiliary Coulomb fitting basis             ... AVAILABLE
   # of basis functions in Aux-J            ...    240
   # of shells in Aux-J                     ...     80
   Maximum angular momentum in Aux-J        ...      4
Auxiliary J/K fitting basis                 ... NOT available
Auxiliary Correlation fitting basis         ... NOT available
Auxiliary 'external' fitting basis          ... NOT available
Integral threshold                          ...     2.500000e-11
Primitive cut-off                           ...     2.500000e-12
Primitive pair pre-selection threshold      ...     2.500000e-12

Calculating pre-screening integrals         ... done (  0.0 sec) Dimension = 60
Calculating pre-screening integrals (ORCA)  ... done (  0.1 sec) Dimension = 36
Organizing shell pair data                  ... done (  0.0 sec)
Shell pair information
Total number of shell pairs                 ...      1830
Shell pairs after pre-screening             ...      1546
Total number of primitive shell pairs       ...      2950
Primitive shell pairs kept                  ...      2311
          la=0 lb=0:    732 shell pairs
          la=1 lb=0:    506 shell pairs
          la=1 lb=1:     78 shell pairs
          la=2 lb=0:    172 shell pairs
          la=2 lb=1:     48 shell pairs
          la=2 lb=2:     10 shell pairs

Calculating one electron integrals          ... done (  0.0 sec)
Calculating RI/J V-Matrix + Cholesky decomp.... done (  0.0 sec)
Calculating Nuclear repulsion               ... done (  0.0 sec) ENN=    107.459603081724 Eh

SHARK setup successfully completed in   0.8 seconds

Maximum memory used throughout the entire GTOINT-calculation: 14.2 MB
-------------------------------------------------------------------------------
                                 ORCA SCF
-------------------------------------------------------------------------------

------------
SCF SETTINGS
------------
Hamiltonian:
 Density Functional     Method          .... DFT(GTOs)
 Exchange Functional    Exchange        .... B88
   X-Alpha parameter    XAlpha          ....  0.666667
   Becke's b parameter  XBeta           ....  0.004200
 Correlation Functional Correlation     .... LYP
 LDA part of GGA corr.  LDAOpt          .... VWN-5
 Gradients option       PostSCFGGA      .... off
 Hybrid DFT is turned on
   Fraction HF Exchange ScalHFX         ....  0.200000
   Scaling of DF-GGA-X  ScalDFX         ....  0.720000
   Scaling of DF-GGA-C  ScalDFC         ....  0.810000
   Scaling of DF-LDA-C  ScalLDAC        ....  1.000000
   Perturbative correction              ....  0.000000
   Density functional embedding theory  .... OFF
   NL short-range parameter             ....  4.800000
 RI-approximation to the Coulomb term is turned on
   Number of AuxJ basis functions       .... 240
   RIJ-COSX (HFX calculated with COS-X)).... on


General Settings:
 Integral files         IntName         .... acrolien.708
 Hartree-Fock type      HFTyp           .... RHF
 Total Charge           Charge          ....    0
 Multiplicity           Mult            ....    1
 Number of Electrons    NEL             ....   30
 Basis Dimension        Dim             ....   76
 Nuclear Repulsion      ENuc            ....    107.4596030817 Eh

Convergence Acceleration:
 DIIS                   CNVDIIS         .... on
   Start iteration      DIISMaxIt       ....    12
   Startup error        DIISStart       ....  0.200000
   # of expansion vecs  DIISMaxEq       ....     5
   Bias factor          DIISBfac        ....   1.050
   Max. coefficient     DIISMaxC        ....  10.000
 Trust-Rad. Augm. Hess. CNVTRAH         .... auto
   Auto Start mean grad. ratio tolernc. ....  1.125000
   Auto Start start iteration           ....    20
   Auto Start num. interpolation iter.  ....    10
   Max. Number of Micro iterations      ....    16
   Max. Number of Macro iterations      .... Maxiter - #DIIS iter
   Number of Davidson start vectors     ....     2
   Converg. threshold I  (grad. norm)   ....   1.000e-05
   Converg. threshold II (energy diff.) ....   1.000e-08
   Grad. Scal. Fac. for Micro threshold ....   0.100
   Minimum threshold for Micro iter.    ....   0.010
   NR start threshold (gradient norm)   ....   0.001
   Initial trust radius                 ....   0.400
   Minimum AH scaling param. (alpha)    ....   1.000
   Maximum AH scaling param. (alpha)    .... 1000.000
   Orbital update algorithm             .... Taylor
   White noise on init. David. guess    .... on
   Maximum white noise                  ....   0.010
   Quad. conv. algorithm                .... NR
 SOSCF                  CNVSOSCF        .... on
   Start iteration      SOSCFMaxIt      ....   150
   Startup grad/error   SOSCFStart      ....  0.003300
 Level Shifting         CNVShift        .... on
   Level shift para.    LevelShift      ....    0.2500
   Turn off err/grad.   ShiftErr        ....    0.0010
 Zerner damping         CNVZerner       .... off
 Static damping         CNVDamp         .... on
   Fraction old density DampFac         ....    0.7000
   Max. Damping (<1)    DampMax         ....    0.9800
   Min. Damping (>=0)   DampMin         ....    0.0000
   Turn off err/grad.   DampErr         ....    0.1000
 Fernandez-Rico         CNVRico         .... off

SCF Procedure:
 Maximum # iterations   MaxIter         ....   500
 SCF integral mode      SCFMode         .... Direct
   Integral package                     .... SHARK and LIBINT hybrid scheme
 Reset frequency        DirectResetFreq ....    20
 Integral Threshold     Thresh          ....  2.500e-11 Eh
 Primitive CutOff       TCut            ....  2.500e-12 Eh

Convergence Tolerance:
 Convergence Check Mode ConvCheckMode   .... Total+1el-Energy
 Convergence forced     ConvForced      .... 1
 Energy Change          TolE            ....  1.000e-08 Eh
 1-El. energy change                    ....  1.000e-05 Eh
 Orbital Gradient       TolG            ....  1.000e-05
 Orbital Rotation angle TolX            ....  1.000e-05
 DIIS Error             TolErr          ....  5.000e-07


Diagonalization of the overlap matrix:
Smallest eigenvalue                        ... 2.962e-03
Time for diagonalization                   ...    0.002 sec
Threshold for overlap eigenvalues          ... 1.000e-08
Number of eigenvalues below threshold      ... 0
Time for construction of square roots      ...    0.448 sec
Total time needed                          ...    0.450 sec

Time for model grid setup =    0.299 sec

------------------------------
INITIAL GUESS: MODEL POTENTIAL
------------------------------
Loading Hartree-Fock densities                     ... done
Calculating cut-offs                               ... done
Initializing the effective Hamiltonian             ... done
Setting up the integral package (SHARK)            ... done
Starting the Coulomb interaction                   ... done (   0.8 sec)
Reading the grid                                   ... done
Mapping shells                                     ... done
Starting the XC term evaluation                    ... done (   0.1 sec)
  promolecular density results
     # of electrons  =     29.998042877
     EX              =    -24.775089382
     EC              =     -0.999577732
     EX+EC           =    -25.774667114
Transforming the Hamiltonian                       ... done (   0.0 sec)
Diagonalizing the Hamiltonian                      ... done (   0.0 sec)
Back transforming the eigenvectors                 ... done (   0.0 sec)
Now organizing SCF variables                       ... done
                      ------------------
                      INITIAL GUESS DONE (   1.4 sec)
                      ------------------
-------------------
DFT GRID GENERATION
-------------------

General Integration Accuracy     IntAcc      ... 4.388
Radial Grid Type                 RadialGrid  ... OptM3 with GC (2021)
Angular Grid (max. ang.)         AngularGrid ... 4 (Lebedev-302)
Angular grid pruning method      GridPruning ... 4 (adaptive)
Weight generation scheme         WeightScheme... Becke
Basis function cutoff            BFCut       ... 1.0000e-11
Integration weight cutoff        WCut        ... 1.0000e-14
Angular grids for H and He will be reduced by one unit
Partially contracted basis set               ... off
Rotationally invariant grid construction     ... off

Total number of grid points                  ...    37363
Total number of batches                      ...      588
Average number of points per batch           ...       63
Average number of grid points per atom       ...     4670
Time for grid setup =    0.704 sec

--------------------
COSX GRID GENERATION
--------------------

GRIDX 1
-------
General Integration Accuracy     IntAcc      ... 3.816
Radial Grid Type                 RadialGrid  ... OptM3 with GC (2021)
Angular Grid (max. ang.)         AngularGrid ... 1 (Lebedev-50)
Angular grid pruning method      GridPruning ... 4 (adaptive)
Weight generation scheme         WeightScheme... Becke
Basis function cutoff            BFCut       ... 1.0000e-11
Integration weight cutoff        WCut        ... 1.0000e-14
Angular grids for H and He will be reduced by one unit
Partially contracted basis set               ... on
Rotationally invariant grid construction     ... off

Total number of grid points                  ...     4796
Total number of batches                      ...       78
Average number of points per batch           ...       61
Average number of grid points per atom       ...      600
UseSFitting                                  ... on

GRIDX 2
-------
General Integration Accuracy     IntAcc      ... 4.020
Radial Grid Type                 RadialGrid  ... OptM3 with GC (2021)
Angular Grid (max. ang.)         AngularGrid ... 2 (Lebedev-110)
Angular grid pruning method      GridPruning ... 4 (adaptive)
Weight generation scheme         WeightScheme... Becke
Basis function cutoff            BFCut       ... 1.0000e-11
Integration weight cutoff        WCut        ... 1.0000e-14
Angular grids for H and He will be reduced by one unit
Partially contracted basis set               ... on
Rotationally invariant grid construction     ... off

Total number of grid points                  ...    10538
Total number of batches                      ...      169
Average number of points per batch           ...       62
Average number of grid points per atom       ...     1317
UseSFitting                                  ... on

GRIDX 3
-------
General Integration Accuracy     IntAcc      ... 4.338
Radial Grid Type                 RadialGrid  ... OptM3 with GC (2021)
Angular Grid (max. ang.)         AngularGrid ... 3 (Lebedev-194)
Angular grid pruning method      GridPruning ... 4 (adaptive)
Weight generation scheme         WeightScheme... Becke
Basis function cutoff            BFCut       ... 1.0000e-11
Integration weight cutoff        WCut        ... 1.0000e-14
Angular grids for H and He will be reduced by one unit
Partially contracted basis set               ... on
Rotationally invariant grid construction     ... off

Total number of grid points                  ...    23252
Total number of batches                      ...      366
Average number of points per batch           ...       63
Average number of grid points per atom       ...     2906
UseSFitting                                  ... on

Time for X-Grid setup             =    4.814 sec

 re-compute Schwartz prescreening matrix in partically contracted basis (1) ...done (   1.198 sec)
--------------
SCF ITERATIONS
--------------
ITER       Energy         Delta-E        Max-DP      RMS-DP      [F,P]     Damp
               ***  Starting incremental Fock matrix formation  ***
  0   -191.6517090822   0.000000000000 0.10769107  0.00418267  0.2588015 0.7000
  1   -191.7087620642  -0.057052982012 0.06913856  0.00278401  0.1055448 0.7000
                               ***Turning on DIIS***
  2   -191.7295167440  -0.020754679881 0.06297061  0.00375058  0.0301759 0.0000
  3   -191.7646284504  -0.035111706367 0.06047820  0.00219092  0.0551672 0.0000
  4   -191.7713488824  -0.006720432007 0.00944731  0.00053646  0.0148728 0.0000
                      *** Initiating the SOSCF procedure ***
                           *** Shutting down DIIS ***
                      *** Re-Reading the Fockian *** 
                      *** Removing any level shift *** 
ITER      Energy       Delta-E        Grad      Rot      Max-DP    RMS-DP
  5   -191.77198411  -0.0006352256  0.000632  0.000632  0.003553  0.000156
               *** Restarting incremental Fock matrix formation ***
  6   -191.77201949  -0.0000353839  0.000551  0.002732  0.002527  0.000132
  7   -191.77201263   0.0000068659  0.001235  0.001898  0.001681  0.000055
  8   -191.77202356  -0.0000109298  0.000060  0.000095  0.000347  0.000017
  9   -191.77202356  -0.0000000081  0.000057  0.000043  0.000115  0.000006
 10   -191.77202365  -0.0000000832  0.000007  0.000021  0.000074  0.000002
 11   -191.77202364   0.0000000029  0.000016  0.000013  0.000036  0.000001
                 **** Energy Check signals convergence ****
              ***Rediagonalizing the Fockian in SOSCF/NRSCF***

               *****************************************************
               *                     SUCCESS                       *
               *           SCF CONVERGED AFTER  12 CYCLES          *
               *****************************************************

Old exchange energy                            =     -5.038118628 Eh
New exchange energy                            =     -5.038116481 Eh
Exchange energy change after final integration =      0.000002147 Eh
Total energy after final integration           =   -191.772021501 Eh
Final COS-X integration done in                =     1.520 sec

----------------
TOTAL SCF ENERGY
----------------

Total Energy       :         -191.77202150 Eh           -5218.38200 eV

Components:
Nuclear Repulsion  :          107.45960308 Eh            2924.12446 eV
Electronic Energy  :         -299.23162458 Eh           -8142.50646 eV
One Electron Energy:         -471.97990151 Eh          -12843.22606 eV
Two Electron Energy:          172.74827693 Eh            4700.71960 eV
Max COSX asymmetry :            0.00000100 Eh               0.00003 eV

Virial components:
Potential Energy   :         -382.72214377 Eh          -10414.39899 eV
Kinetic Energy     :          190.95012227 Eh            5196.01699 eV
Virial Ratio       :            2.00430426


DFT components:
N(Alpha)           :       15.000004237905 electrons
N(Beta)            :       15.000004237905 electrons
N(Total)           :       30.000008475811 electrons
E(X)               :      -20.023202882885 Eh       
E(C)               :       -1.186805732081 Eh       
E(XC)              :      -21.210008614966 Eh       
DFET-embed. en.    :        0.000000000000 Eh       

---------------
SCF CONVERGENCE
---------------

  Last Energy change         ...   -3.6373e-09  Tolerance :   1.0000e-08
  Last MAX-Density change    ...    1.7764e-15  Tolerance :   1.0000e-07
  Last RMS-Density change    ...    5.3583e-17  Tolerance :   5.0000e-09
  Last Orbital Gradient      ...    5.7985e-07  Tolerance :   1.0000e-05
  Last Orbital Rotation      ...    1.1008e-06  Tolerance :   1.0000e-05

             **** THE GBW FILE WAS UPDATED (acrolien.708.gbw) ****
             **** DENSITY acrolien.708.scfp WAS UPDATED ****
             **** ENERGY FILE WAS UPDATED (acrolien.708.en.tmp) ****
             **** THE GBW FILE WAS UPDATED (acrolien.708.gbw) ****
             **** DENSITY acrolien.708.scfp WAS UPDATED ****
----------------
ORBITAL ENERGIES
----------------

  NO   OCC          E(Eh)            E(eV) 
   0   2.0000     -19.132142      -520.6121 
   1   2.0000     -10.260385      -279.1993 
   2   2.0000     -10.222436      -278.1666 
   3   2.0000     -10.208544      -277.7886 
   4   2.0000      -1.093880       -29.7660 
   5   2.0000      -0.788386       -21.4531 
   6   2.0000      -0.655948       -17.8493 
   7   2.0000      -0.532049       -14.4778 
   8   2.0000      -0.522555       -14.2195 
   9   2.0000      -0.455098       -12.3839 
  10   2.0000      -0.429014       -11.6741 
  11   2.0000      -0.408417       -11.1136 
  12   2.0000      -0.397486       -10.8161 
  13   2.0000      -0.276800        -7.5321 
  14   2.0000      -0.249057        -6.7772 
  15   0.0000      -0.074930        -2.0390 
  16   0.0000       0.068401         1.8613 
  17   0.0000       0.074041         2.0147 
  18   0.0000       0.095483         2.5982 
  19   0.0000       0.131854         3.5879 
  20   0.0000       0.151976         4.1355 
  21   0.0000       0.240751         6.5512 
  22   0.0000       0.273269         7.4360 
  23   0.0000       0.319440         8.6924 
  24   0.0000       0.432677        11.7737 
  25   0.0000       0.452983        12.3263 
  26   0.0000       0.474587        12.9142 
  27   0.0000       0.501283        13.6406 
  28   0.0000       0.509730        13.8705 
  29   0.0000       0.539881        14.6909 
  30   0.0000       0.552527        15.0350 
  31   0.0000       0.614943        16.7334 
  32   0.0000       0.657889        17.9021 
  33   0.0000       0.663312        18.0496 
  34   0.0000       0.724028        19.7018 
  35   0.0000       0.768964        20.9246 
  36   0.0000       0.792879        21.5753 
  37   0.0000       0.855341        23.2750 
  38   0.0000       0.875827        23.8325 
  39   0.0000       0.901880        24.5414 
  40   0.0000       0.944136        25.6913 
  41   0.0000       1.012278        27.5455 
  42   0.0000       1.021897        27.8072 
  43   0.0000       1.062947        28.9242 
  44   0.0000       1.122870        30.5549 
  45   0.0000       1.168293        31.7909 
  46   0.0000       1.192676        32.4544 
  47   0.0000       1.340516        36.4773 
  48   0.0000       1.395903        37.9844 
  49   0.0000       1.500415        40.8284 
  50   0.0000       1.516006        41.2526 
  51   0.0000       1.561987        42.5038 
  52   0.0000       1.568942        42.6931 
  53   0.0000       1.612335        43.8739 
  54   0.0000       1.625476        44.2315 
  55   0.0000       1.678588        45.6767 
  56   0.0000       1.726047        46.9681 
  57   0.0000       1.765726        48.0479 
  58   0.0000       1.842050        50.1247 
  59   0.0000       1.871727        50.9323 
  60   0.0000       1.901244        51.7355 
  61   0.0000       1.912431        52.0399 
  62   0.0000       2.016952        54.8841 
  63   0.0000       2.030691        55.2579 
  64   0.0000       2.127967        57.9049 
  65   0.0000       2.237811        60.8939 
  66   0.0000       2.329320        63.3840 
  67   0.0000       2.393744        65.1371 
  68   0.0000       2.601659        70.7947 
  69   0.0000       2.671156        72.6859 
  70   0.0000       2.730388        74.2976 
  71   0.0000       2.769910        75.3731 
  72   0.0000       3.062641        83.3387 
  73   0.0000       3.160313        85.9965 
  74   0.0000       3.515739        95.6681 
  75   0.0000       3.566230        97.0421 

                    ********************************
                    * MULLIKEN POPULATION ANALYSIS *
                    ********************************

-----------------------
MULLIKEN ATOMIC CHARGES
-----------------------
   0 C :    0.190333
   1 O :   -0.130265
   2 C :   -0.147781
   3 C :    0.066542
   4 H :   -0.067312
   5 H :    0.009627
   6 H :    0.045310
   7 H :    0.033544
Sum of atomic charges:   -0.0000000

--------------------------------
MULLIKEN REDUCED ORBITAL CHARGES
--------------------------------
  0 C s       :     3.030676  s :     3.030676
      pz      :     0.782166  p :     2.608697
      px      :     0.907991
      py      :     0.918541
      dz2     :     0.005962  d :     0.170294
      dxz     :     0.007126
      dyz     :     0.039453
      dx2y2   :     0.036395
      dxy     :     0.081358
  1 O s       :     3.687422  s :     3.687422
      pz      :     1.312443  p :     4.419423
      px      :     1.715550
      py      :     1.391430
      dz2     :     0.002532  d :     0.023419
      dxz     :     0.000044
      dyz     :     0.007236
      dx2y2   :     0.007906
      dxy     :     0.005701
  2 C s       :     3.204633  s :     3.204633
      pz      :     0.998334  p :     2.888964
      px      :     0.970865
      py      :     0.919766
      dz2     :     0.003190  d :     0.054183
      dxz     :     0.006063
      dyz     :     0.004843
      dx2y2   :     0.020336
      dxy     :     0.019751
  3 C s       :     3.124925  s :     3.124925
      pz      :     0.862704  p :     2.770622
      px      :     0.946824
      py      :     0.961094
      dz2     :     0.000927  d :     0.037910
      dxz     :     0.005943
      dyz     :     0.002366
      dx2y2   :     0.015801
      dxy     :     0.012873
  4 H s       :     1.042812  s :     1.042812
      pz      :     0.004063  p :     0.024500
      px      :     0.015042
      py      :     0.005396
  5 H s       :     0.962079  s :     0.962079
      pz      :     0.005872  p :     0.028294
      px      :     0.003911
      py      :     0.018511
  6 H s       :     0.922498  s :     0.922498
      pz      :     0.005779  p :     0.032191
      px      :     0.006570
      py      :     0.019842
  7 H s       :     0.935975  s :     0.935975
      pz      :     0.005681  p :     0.030481
      px      :     0.015320
      py      :     0.009479


                     *******************************
                     * LOEWDIN POPULATION ANALYSIS *
                     *******************************

----------------------
LOEWDIN ATOMIC CHARGES
----------------------
   0 C :   -0.119557
   1 O :    0.074776
   2 C :   -0.068363
   3 C :    0.053931
   4 H :   -0.023990
   5 H :    0.032430
   6 H :    0.027072
   7 H :    0.023703

-------------------------------
LOEWDIN REDUCED ORBITAL CHARGES
-------------------------------
  0 C s       :     2.824157  s :     2.824157
      pz      :     0.774455  p :     2.823857
      px      :     1.006324
      py      :     1.043077
      dz2     :     0.024696  d :     0.471544
      dxz     :     0.017331
      dyz     :     0.088508
      dx2y2   :     0.104727
      dxy     :     0.236282
  1 O s       :     3.421791  s :     3.421791
      pz      :     1.283312  p :     4.460683
      px      :     1.658953
      py      :     1.518417
      dz2     :     0.005563  d :     0.042751
      dxz     :     0.000054
      dyz     :     0.008918
      dx2y2   :     0.017160
      dxy     :     0.011055
  2 C s       :     2.868674  s :     2.868674
      pz      :     0.951326  p :     3.031413
      px      :     1.051592
      py      :     1.028495
      dz2     :     0.013623  d :     0.168276
      dxz     :     0.016818
      dyz     :     0.009776
      dx2y2   :     0.064713
      dxy     :     0.063346
  3 C s       :     2.882106  s :     2.882106
      pz      :     0.838558  p :     2.943697
      px      :     1.044556
      py      :     1.060584
      dz2     :     0.008074  d :     0.120266
      dxz     :     0.012304
      dyz     :     0.006788
      dx2y2   :     0.049172
      dxy     :     0.043928
  4 H s       :     0.952890  s :     0.952890
      pz      :     0.012301  p :     0.071100
      px      :     0.041128
      py      :     0.017671
  5 H s       :     0.887092  s :     0.887092
      pz      :     0.017445  p :     0.080478
      px      :     0.014578
      py      :     0.048455
  6 H s       :     0.879040  s :     0.879040
      pz      :     0.017888  p :     0.093888
      px      :     0.020369
      py      :     0.055631
  7 H s       :     0.889216  s :     0.889216
      pz      :     0.017026  p :     0.087081
      px      :     0.041635
      py      :     0.028419


                      *****************************
                      * MAYER POPULATION ANALYSIS *
                      *****************************

  NA   - Mulliken gross atomic population
  ZA   - Total nuclear charge
  QA   - Mulliken gross atomic charge
  VA   - Mayer's total valence
  BVA  - Mayer's bonded valence
  FA   - Mayer's free valence

  ATOM       NA         ZA         QA         VA         BVA        FA
  0 C      5.8097     6.0000     0.1903     4.2724     4.2724     0.0000
  1 O      8.1303     8.0000    -0.1303     2.4519     2.4519     0.0000
  2 C      6.1478     6.0000    -0.1478     3.9449     3.9449    -0.0000
  3 C      5.9335     6.0000     0.0665     3.9295     3.9295    -0.0000
  4 H      1.0673     1.0000    -0.0673     0.9538     0.9538    -0.0000
  5 H      0.9904     1.0000     0.0096     0.9863     0.9863     0.0000
  6 H      0.9547     1.0000     0.0453     1.0178     1.0178    -0.0000
  7 H      0.9665     1.0000     0.0335     0.9709     0.9709    -0.0000

  Mayer bond orders larger than 0.100000
B(  0-C ,  1-O ) :   2.2580 B(  0-C ,  2-C ) :   1.0688 B(  0-C ,  4-H ) :   0.9064 
B(  2-C ,  3-C ) :   1.8955 B(  2-C ,  5-H ) :   0.9550 B(  3-C ,  6-H ) :   0.9356 
B(  3-C ,  7-H ) :   0.9540 

-------
TIMINGS
-------

Total SCF time: 0 days 0 hours 2 min 48 sec 

Total time                  ....     168.413 sec
Sum of individual times     ....     130.577 sec  ( 77.5%)

Fock matrix formation       ....     121.238 sec  ( 72.0%)
  Split-RI-J                ....       3.103 sec  (  2.6% of F)
  Chain of spheres X        ....      10.472 sec  (  8.6% of F)
  XC integration            ....      45.320 sec  ( 37.4% of F)
    Basis function eval.    ....       1.682 sec  (  3.7% of XC)
    Density eval.           ....       0.613 sec  (  1.4% of XC)
    XC-Functional eval.     ....       0.667 sec  (  1.5% of XC)
    XC-Potential eval.      ....       0.647 sec  (  1.4% of XC)
Diagonalization             ....       0.007 sec  (  0.0%)
Density matrix formation    ....       0.001 sec  (  0.0%)
Population analysis         ....       0.073 sec  (  0.0%)
Initial guess               ....       1.079 sec  (  0.6%)
Orbital Transformation      ....       0.000 sec  (  0.0%)
Orbital Orthonormalization  ....       0.000 sec  (  0.0%)
DIIS solution               ....       0.195 sec  (  0.1%)
SOSCF solution              ....       2.169 sec  (  1.3%)
Grid generation             ....       5.817 sec  (  3.5%)

Maximum memory used throughout the entire SCF-calculation: 51.7 MB
------------------------------------------------------------------------------
                        ORCA TD-DFT/TDA CALCULATION
------------------------------------------------------------------------------

Input orbitals are from        ... acrolien.708.gbw
CI-vector output               ... acrolien.708.cis
Tamm-Dancoff approximation     ... operative
CIS-Integral strategy          ... AO-integrals
Integral handling              ... AO integral Direct
Max. core memory used          ... 512 MB
Reference state                ... RHF
Generation of triplets         ... off
Follow IRoot                   ... off
Number of operators            ... 1
Orbital ranges used for CIS calculation:
 Operator 0:  Orbitals   4... 14  to  15... 75
XAS localization array:
 Operator 0:  Orbitals  -1... -1

-------------------
XC-INTEGRATION GRID
-------------------

General Integration Accuracy     IntAcc      ... 3.467
Radial Grid Type                 RadialGrid  ... OptM3 with GC (2021)
Angular Grid (max. ang.)         AngularGrid ... 1 (Lebedev-50)
Angular grid pruning method      GridPruning ... 4 (adaptive)
Weight generation scheme         WeightScheme... Becke
Basis function cutoff            BFCut       ... 1.0000e-11
Integration weight cutoff        WCut        ... 1.0000e-14
Angular grids for H and He will be reduced by one unit
Partially contracted basis set               ... off
Rotationally invariant grid construction     ... off

Total number of grid points                  ...     5482
Total number of batches                      ...       90
Average number of points per batch           ...       60
Average number of grid points per atom       ...      685

---------------------
COSX-INTEGRATION GRID
---------------------

General Integration Accuracy     IntAcc      ... 3.067
Radial Grid Type                 RadialGrid  ... OptM3 with GC (2021)
Angular Grid (max. ang.)         AngularGrid ... 1 (Lebedev-50)
Angular grid pruning method      GridPruning ... 4 (adaptive)
Weight generation scheme         WeightScheme... Becke
Basis function cutoff            BFCut       ... 1.0000e-11
Integration weight cutoff        WCut        ... 1.0000e-14
Angular grids for H and He will be reduced by one unit
Partially contracted basis set               ... on
Rotationally invariant grid construction     ... off

Total number of grid points                  ...     2506
Total number of batches                      ...       45
Average number of points per batch           ...       55
Average number of grid points per atom       ...      313

---------------
TD-DFT XC SETUP
---------------

DFT calculation                         ... on
Name of the grid file                   ... acrolien.708.grid_cis.tmp
Exchange functional (TD-DFT)            ... B88
   X-Alpha parameter    XAlpha (TD-DFT) ...  0.666667
   Becke's b parameter  XBeta (TD-DFT)  ...  0.004200
Correlation functional (TD-DFT)         ... LYP
 LDA part of GGA corr.  LDAOpt (TD-DFT) ... VWN-5
Hybrid DFT                              ... on
   Exchange mixing (TD-DFT)             ...  0.200
   GGA exch. scaling (TD-DFT)           ...  0.720
   GGA corr. scaling (TD-DFT)           ...  0.810

Building densities             ... done
Calculating rho(r) on the grid ... done
Building xc-kernel on the grid ... done
                    *** TD-DFT CALCULATION INITIALIZED ***

------------------------
DAVIDSON-DIAGONALIZATION
------------------------

Dimension of the eigenvalue problem            ...    671
Number of roots to be determined               ...      1
Maximum size of the expansion space            ...     10
Maximum number of iterations                   ...    100
Convergence tolerance for the residual         ...    2.500e-07
Convergence tolerance for the energies         ...    2.500e-07
Orthogonality tolerance                        ...    1.000e-14
Level Shift                                    ...    0.000e+00
Constructing the preconditioner                ... o.k.
Building the initial guess                     ... o.k.
Number of trial vectors determined             ...     10


                       ****Iteration    0****

   Memory handling for direct AO based CIS:
   Memory per vector needed      ...     1 MB
   Memory needed                 ...     0 MB
   Memory available              ...   512 MB
   Number of vectors per batch   ...   512
   Number of batches             ...     1
   Time for densities:            0.000
   Time for RI-J (Direct):        0.070
   Time for K (COSX):             0.235
   Time for XC-Integration:       0.082
   Time for Sigma-Completion:     0.000
   Size of expansion space: 3
   Lowest Energy          :     0.123408126936
   Maximum Energy change  :     0.123408126936 (vector 0)
   Maximum residual norm  :     0.001174854080

                       ****Iteration    1****
   Time for densities:            0.000
   Time for RI-J (Direct):        0.055
   Time for K (COSX):             0.196
   Time for XC-Integration:       0.043
   Time for Sigma-Completion:     0.000
   Size of expansion space: 4
   Lowest Energy          :     0.121994832656
   Maximum Energy change  :     0.001413294280 (vector 0)
   Maximum residual norm  :     0.000130288950

                       ****Iteration    2****
   Time for densities:            0.000
   Time for RI-J (Direct):        0.054
   Time for K (COSX):             1.610
   Time for XC-Integration:       0.043
   Time for Sigma-Completion:     0.000
   Size of expansion space: 5
   Lowest Energy          :     0.121872503203
   Maximum Energy change  :     0.000122329452 (vector 0)
   Maximum residual norm  :     0.000014456171

                       ****Iteration    3****
   Time for densities:            0.000
   Time for RI-J (Direct):        0.053
   Time for K (COSX):             1.605
   Time for XC-Integration:       0.043
   Time for Sigma-Completion:     0.000
   Size of expansion space: 6
   Lowest Energy          :     0.121858535445
   Maximum Energy change  :     0.000013967758 (vector 0)
   Maximum residual norm  :     0.000000712692

                       ****Iteration    4****
   Time for densities:            0.000
   Time for RI-J (Direct):        0.055
   Time for K (COSX):             0.907
   Time for XC-Integration:       0.043
   Time for Sigma-Completion:     0.000
   Size of expansion space: 7
   Lowest Energy          :     0.121857873455
   Maximum Energy change  :     0.000000661990 (vector 0)
   Maximum residual norm  :     0.000000032906

      *** CONVERGENCE OF RESIDUAL NORM REACHED ***

Storing the converged CI vectors               ... acrolien.708.cis1

                 *** DAVIDSON DONE ***

Total time for solving the CIS problem:     9.744sec

------------------------------------
TD-DFT/TDA EXCITED STATES (SINGLETS)
------------------------------------

the weight of the individual excitations are printed if larger than 1.0e-02

STATE  1:  E=   0.121858 au      3.316 eV    26744.7 cm**-1 <S**2> =   0.000000
    14a ->  15a  :     0.987282 (c= -0.99362088)


-----------------------------
TD-DFT/TDA-EXCITATION SPECTRA
-----------------------------

Center of mass = (  0.5757, -0.9094, -0.0000)
Calculating the Dipole integrals                  ... done
Transforming integrals                            ... done
Calculating the Linear Momentum integrals         ... done
Transforming integrals                            ... done
Calculating angular momentum integrals            ... done
Transforming integrals                            ... done

-----------------------------------------------------------------------------
         ABSORPTION SPECTRUM VIA TRANSITION ELECTRIC DIPOLE MOMENTS
-----------------------------------------------------------------------------
State   Energy    Wavelength  fosc         T2        TX        TY        TZ  
        (cm-1)      (nm)                 (au**2)    (au)      (au)      (au) 
-----------------------------------------------------------------------------
   1   26744.7    373.9   0.000613824   0.00756   0.07870   0.03015   0.02128

-----------------------------------------------------------------------------
         ABSORPTION SPECTRUM VIA TRANSITION VELOCITY DIPOLE MOMENTS
-----------------------------------------------------------------------------
State   Energy    Wavelength   fosc        P2         PX        PY        PZ  
        (cm-1)      (nm)                 (au**2)     (au)      (au)      (au) 
-----------------------------------------------------------------------------
   1   26744.7    373.9   0.002388539   0.00044   0.00868   0.00080  -0.01899

-------------------------------------------------------------------
                             CD SPECTRUM
-------------------------------------------------------------------
State  Energy     Wavelength     R         MX        MY        MZ   
       (cm-1)       (nm)     (1e40*cgs)   (au)      (au)      (au)  
-------------------------------------------------------------------
   1   26744.7    373.9      3.10640   0.00353   0.20734   0.00281

-------------------------------------------------------------------
         CD SPECTRUM VIA TRANSITION VELOCITY DIPOLE MOMENTS        
-------------------------------------------------------------------
State  Energy     Wavelength     R         MX        MY        MZ   
       (cm-1)       (nm)     (1e40*cgs)   (au)      (au)      (au)  
-------------------------------------------------------------------
   1   26744.7    373.9      0.55813   0.00353   0.20734   0.00281

Total run time:       18.279 sec

           *** ORCA-CIS/TD-DFT FINISHED WITHOUT ERROR ***

Maximum memory used throughout the entire CIS-calculation: 48.6 MB

-----------------------
CIS/TD-DFT TOTAL ENERGY
-----------------------

    E(SCF)  =   -191.772021501 Eh
    DE(CIS) =      0.121857873 Eh (Root  1)
    ----------------------------- ---------
    E(tot)  =   -191.650163628 Eh


-------------------------   --------------------
FINAL SINGLE POINT ENERGY      -191.650163627730
-------------------------   --------------------


                            ***************************************
                            *     ORCA property calculations      *
                            ***************************************

                                    ---------------------
                                    Active property flags
                                    ---------------------
   (+) Dipole Moment


------------------------------------------------------------------------------
                       ORCA ELECTRIC PROPERTIES CALCULATION
------------------------------------------------------------------------------

Dipole Moment Calculation                       ... on
Quadrupole Moment Calculation                   ... off
Polarizability Calculation                      ... off
GBWName                                         ... acrolien.708.gbw
Electron density                                ... acrolien.708.scfp
The origin for moment calculation is the CENTER OF MASS  = ( 0.575699, -0.909442 -0.000033)

-------------
DIPOLE MOMENT
-------------
                                X             Y             Z
Electronic contribution:     -1.54432      -1.68425      -0.53181
Nuclear contribution   :      2.02131       2.46340       0.66525
                        -----------------------------------------
Total Dipole Moment    :      0.47698       0.77916       0.13344
                        -----------------------------------------
Magnitude (a.u.)       :      0.92326
Magnitude (Debye)      :      2.34674



--------------------
Rotational spectrum 
--------------------
 
Rotational constants in cm-1:     0.722148     0.233688     0.177500 
Rotational constants in MHz : 21649.443447  7005.799652  5321.306450 

 Dipole components along the rotational axes: 
x,y,z [a.u.] :     0.814513     0.412629     0.136794 
x,y,z [Debye]:     2.070328     1.048820     0.347703 

 

Timings for individual modules:

Sum of individual times         ...      195.316 sec (=   3.255 min)
GTO integral calculation        ...        0.804 sec (=   0.013 min)   0.4 %
SCF iterations                  ...      174.982 sec (=   2.916 min)  89.6 %
CIS module                      ...       19.530 sec (=   0.325 min)  10.0 %
                             ****ORCA TERMINATED NORMALLY****
TOTAL RUN TIME: 0 days 0 hours 3 minutes 21 seconds 678 msec
