
                                 *****************
                                 * O   R   C   A *
                                 *****************

                                            #,                                       
                                            ###                                      
                                            ####                                     
                                            #####                                    
                                            ######                                   
                                           ########,                                 
                                     ,,################,,,,,                         
                               ,,#################################,,                 
                          ,,##########################################,,             
                       ,#########################################, ''#####,          
                    ,#############################################,,   '####,        
                  ,##################################################,,,,####,       
                ,###########''''           ''''###############################       
              ,#####''   ,,,,##########,,,,          '''####'''          '####       
            ,##' ,,,,###########################,,,                        '##       
           ' ,,###''''                  '''############,,,                           
         ,,##''                                '''############,,,,        ,,,,,,###''
      ,#''                                            '''#######################'''  
     '                                                          ''''####''''         
             ,#######,   #######,   ,#######,      ##                                
            ,#'     '#,  ##    ##  ,#'     '#,    #''#        ######   ,####,        
            ##       ##  ##   ,#'  ##            #'  '#       #        #'  '#        
            ##       ##  #######   ##           ,######,      #####,   #    #        
            '#,     ,#'  ##    ##  '#,     ,#' ,#      #,         ##   #,  ,#        
             '#######'   ##     ##  '#######'  #'      '#     #####' # '####'        



                  #######################################################
                  #                        -***-                        #
                  #          Department of theory and spectroscopy      #
                  #    Directorship and core code : Frank Neese         #
                  #        Max Planck Institute fuer Kohlenforschung    #
                  #                Kaiser Wilhelm Platz 1               #
                  #                 D-45470 Muelheim/Ruhr               #
                  #                      Germany                        #
                  #                                                     #
                  #                  All rights reserved                #
                  #                        -***-                        #
                  #######################################################


                         Program Version 5.0.3 -  RELEASE  -


 With contributions from (in alphabetic order):
   Daniel Aravena         : Magnetic Suceptibility
   Michael Atanasov       : Ab Initio Ligand Field Theory (pilot matlab implementation)
   Alexander A. Auer      : GIAO ZORA, VPT2 properties, NMR spectrum
   Ute Becker             : Parallelization
   Giovanni Bistoni       : ED, misc. LED, open-shell LED, HFLD
   Martin Brehm           : Molecular dynamics
   Dmytro Bykov           : SCF Hessian
   Vijay G. Chilkuri      : MRCI spin determinant printing, contributions to CSF-ICE
   Dipayan Datta          : RHF DLPNO-CCSD density
   Achintya Kumar Dutta   : EOM-CC, STEOM-CC
   Dmitry Ganyushin       : Spin-Orbit,Spin-Spin,Magnetic field MRCI
   Miquel Garcia          : C-PCM and meta-GGA Hessian, CC/C-PCM, Gaussian charge scheme
   Yang Guo               : DLPNO-NEVPT2, F12-NEVPT2, CIM, IAO-localization
   Andreas Hansen         : Spin unrestricted coupled pair/coupled cluster methods
   Benjamin Helmich-Paris : MC-RPA, TRAH-SCF, COSX integrals
   Lee Huntington         : MR-EOM, pCC
   Robert Izsak           : Overlap fitted RIJCOSX, COSX-SCS-MP3, EOM
   Marcus Kettner         : VPT2
   Christian Kollmar      : KDIIS, OOCD, Brueckner-CCSD(T), CCSD density, CASPT2, CASPT2-K
   Simone Kossmann        : Meta GGA functionals, TD-DFT gradient, OOMP2, MP2 Hessian
   Martin Krupicka        : Initial AUTO-CI
   Lucas Lang             : DCDCAS
   Marvin Lechner         : AUTO-CI (C++ implementation), FIC-MRCC
   Dagmar Lenk            : GEPOL surface, SMD
   Dimitrios Liakos       : Extrapolation schemes; Compound Job, initial MDCI parallelization
   Dimitrios Manganas     : Further ROCIS development; embedding schemes
   Dimitrios Pantazis     : SARC Basis sets
   Anastasios Papadopoulos: AUTO-CI, single reference methods and gradients
   Taras Petrenko         : DFT Hessian,TD-DFT gradient, ASA, ECA, R-Raman, ABS, FL, XAS/XES, NRVS
   Peter Pinski           : DLPNO-MP2, DLPNO-MP2 Gradient
   Christoph Reimann      : Effective Core Potentials
   Marius Retegan         : Local ZFS, SOC
   Christoph Riplinger    : Optimizer, TS searches, QM/MM, DLPNO-CCSD(T), (RO)-DLPNO pert. Triples
   Tobias Risthaus        : Range-separated hybrids, TD-DFT gradient, RPA, STAB
   Michael Roemelt        : Original ROCIS implementation
   Masaaki Saitow         : Open-shell DLPNO-CCSD energy and density
   Barbara Sandhoefer     : DKH picture change effects
   Avijit Sen             : IP-ROCIS
   Kantharuban Sivalingam : CASSCF convergence, NEVPT2, FIC-MRCI
   Bernardo de Souza      : ESD, SOC TD-DFT
   Georgi Stoychev        : AutoAux, RI-MP2 NMR, DLPNO-MP2 response
   Willem Van den Heuvel  : Paramagnetic NMR
   Boris Wezisla          : Elementary symmetry handling
   Frank Wennmohs         : Technical directorship


 We gratefully acknowledge several colleagues who have allowed us to
 interface, adapt or use parts of their codes:
   Stefan Grimme, W. Hujo, H. Kruse, P. Pracht,  : VdW corrections, initial TS optimization,
                  C. Bannwarth, S. Ehlert          DFT functionals, gCP, sTDA/sTD-DF
   Ed Valeev, F. Pavosevic, A. Kumar             : LibInt (2-el integral package), F12 methods
   Garnet Chan, S. Sharma, J. Yang, R. Olivares  : DMRG
   Ulf Ekstrom                                   : XCFun DFT Library
   Mihaly Kallay                                 : mrcc  (arbitrary order and MRCC methods)
   Jiri Pittner, Ondrej Demel                    : Mk-CCSD
   Frank Weinhold                                : gennbo (NPA and NBO analysis)
   Christopher J. Cramer and Donald G. Truhlar   : smd solvation model
   Lars Goerigk                                  : TD-DFT with DH, B97 family of functionals
   V. Asgeirsson, H. Jonsson                     : NEB implementation
   FAccTs GmbH                                   : IRC, NEB, NEB-TS, DLPNO-Multilevel, CI-OPT
                                                   MM, QMMM, 2- and 3-layer-ONIOM, Crystal-QMMM,
                                                   LR-CPCM, SF, NACMEs, symmetry and pop. for TD-DFT,
                                                   nearIR, NL-DFT gradient (VV10), updates on ESD,
                                                   ML-optimized integration grids
   S Lehtola, MJT Oliveira, MAL Marques          : LibXC Library
   Liviu Ungur et al                             : ANISO software


 Your calculation uses the libint2 library for the computation of 2-el integrals
 For citations please refer to: http://libint.valeyev.net

 Your ORCA version has been built with support for libXC version: 5.1.0
 For citations please refer to: https://tddft.org/programs/libxc/

 This ORCA versions uses:
   CBLAS   interface :  Fast vector & matrix operations
   LAPACKE interface :  Fast linear algebra routines
   SCALAPACK package :  Parallel linear algebra routines
   Shared memory     :  Shared parallel matrices
   BLAS/LAPACK       :  OpenBLAS 0.3.15  USE64BITINT DYNAMIC_ARCH NO_AFFINITY Haswell SINGLE_THREADED
        Core in use  :  Haswell
   Copyright (c) 2011-2014, The OpenBLAS Project


Your calculation utilizes the geometrical counterpoise correction gCP
Please cite in your paper:
H.Kruse, S. Grimme J.Chem.Phys., 136, (2012), 154101 
   

Your calculation utilizes the atom-pairwise dispersion correction
with the Becke-Johnson damping scheme (D3BJ)
Cite in your paper:
S.Grimme, S.Ehrlich, L.Goerigk, J Comput Chem, (2011), 32, 1456–1465 
S.Grimme, J.Antony, S.Ehrlich and H.Krieg, J.Chem.Phys., 132, (2010), 154104 
   

================================================================================

----- Orbital basis set information -----
Your calculation utilizes the basis: MINIX,
   a combination of small basis sets by S. Grimme (see manual for definitions).

================================================================================
                                        WARNINGS
                       Please study these warnings very carefully!
================================================================================

INFO   : Checking CIS options ...

INFO   : the flag for use of the SHARK integral package has been found!

================================================================================
                                       INPUT FILE
================================================================================
NAME = acrolien.150.com
|  1> ! HF-3c
|  2> !TightSCF
|  3> %scf
|  4>  ConvForced true
|  5>  convergence tight
|  6>  MaxIter 500
|  7> end
|  8>  
|  9> %tddft 
| 10>  nroots 1
| 11> end
| 12> 
| 13> # 	11661
| 14> * xyz 0 1
| 15> 		C   -1.115611  -0.305205  -0.029536
| 16> 		O   -1.154732  -1.467087  -0.054571
| 17> 		C    0.052441   0.608678  -0.038464
| 18> 		C    1.197151   0.009464   0.011367
| 19> 		H   -2.105083   0.212862   0.079194
| 20> 		H   -0.198487   1.589335  -0.053688
| 21> 		H    1.127982  -1.208831  -0.055820
| 22> 		H    2.184459   0.564150   0.123095
| 23> *
| 24> 
| 25>                          ****END OF INPUT****
================================================================================

                       ****************************
                       * Single Point Calculation *
                       ****************************

---------------------------------
CARTESIAN COORDINATES (ANGSTROEM)
---------------------------------
  C     -1.115611   -0.305205   -0.029536
  O     -1.154732   -1.467087   -0.054571
  C      0.052441    0.608678   -0.038464
  C      1.197151    0.009464    0.011367
  H     -2.105083    0.212862    0.079194
  H     -0.198487    1.589335   -0.053688
  H      1.127982   -1.208831   -0.055820
  H      2.184459    0.564150    0.123095

----------------------------
CARTESIAN COORDINATES (A.U.)
----------------------------
  NO LB      ZA    FRAG     MASS         X           Y           Z
   0 C     6.0000    0    12.011   -2.108199   -0.576754   -0.055815
   1 O     8.0000    0    15.999   -2.182127   -2.772393   -0.103124
   2 C     6.0000    0    12.011    0.099099    1.150235   -0.072686
   3 C     6.0000    0    12.011    2.262288    0.017884    0.021481
   4 H     1.0000    0     1.008   -3.978030    0.402251    0.149655
   5 H     1.0000    0     1.008   -0.375086    3.003408   -0.101456
   6 H     1.0000    0     1.008    2.131577   -2.284360   -0.105485
   7 H     1.0000    0     1.008    4.128029    1.066089    0.232616

--------------------------------
INTERNAL COORDINATES (ANGSTROEM)
--------------------------------
 C      0   0   0     0.000000000000     0.00000000     0.00000000
 O      1   0   0     1.162809952567     0.00000000     0.00000000
 C      1   2   0     1.483107319642   129.94635419     0.00000000
 C      3   1   2     1.293020313242   114.29568346   355.52244258
 H      1   2   3     1.122172209678   115.70368434   184.09398713
 H      3   1   2     1.012365933351   113.68921968   177.31210579
 H      4   3   1     1.222105212555   114.18925899     5.82912499
 H      4   3   1     1.137952895090   123.09260424   186.66344648

---------------------------
INTERNAL COORDINATES (A.U.)
---------------------------
 C      0   0   0     0.000000000000     0.00000000     0.00000000
 O      1   0   0     2.197392356151     0.00000000     0.00000000
 C      1   2   0     2.802666661338   129.94635419     0.00000000
 C      3   1   2     2.443454277625   114.29568346   355.52244258
 H      1   2   3     2.120598151388   115.70368434   184.09398713
 H      3   1   2     1.913094361344   113.68921968   177.31210579
 H      4   3   1     2.309444158567   114.18925899     5.82912499
 H      4   3   1     2.150419325023   123.09260424   186.66344648

---------------------
BASIS SET INFORMATION
---------------------
There are 3 groups of distinct atoms

 Group   1 Type C   : 6s3p contracted to 2s1p pattern {33/3}
 Group   2 Type O   : 6s3p contracted to 2s1p pattern {33/3}
 Group   3 Type H   : 3s contracted to 1s pattern {3}

Atom   0C    basis set group =>   1
Atom   1O    basis set group =>   2
Atom   2C    basis set group =>   1
Atom   3C    basis set group =>   1
Atom   4H    basis set group =>   3
Atom   5H    basis set group =>   3
Atom   6H    basis set group =>   3
Atom   7H    basis set group =>   3
------------------------------------------------------------------------------
                           ORCA GTO INTEGRAL CALCULATION
------------------------------------------------------------------------------
------------------------------------------------------------------------------
                   ___                                                        
                  /   \      - P O W E R E D   B Y -                         
                 /     \                                                     
                 |  |  |   _    _      __       _____    __    __             
                 |  |  |  | |  | |    /  \     |  _  \  |  |  /  |          
                  \  \/   | |  | |   /    \    | | | |  |  | /  /          
                 / \  \   | |__| |  /  /\  \   | |_| |  |  |/  /          
                |  |  |   |  __  | /  /__\  \  |    /   |      \           
                |  |  |   | |  | | |   __   |  |    \   |  |\   \          
                \     /   | |  | | |  |  |  |  | |\  \  |  | \   \       
                 \___/    |_|  |_| |__|  |__|  |_| \__\ |__|  \__/        
                                                                              
                      - O R C A' S   B I G   F R I E N D -                    
                                      &                                       
                       - I N T E G R A L  F E E D E R -                       
                                                                              
 v1 FN, 2020, v2 2021                                                         
------------------------------------------------------------------------------


Reading SHARK input file acrolien.150.SHARKINP.tmp ... ok
----------------------
SHARK INTEGRAL PACKAGE
----------------------

Number of atoms                             ...      8
Number of basis functions                   ...     24
Number of shells                            ...     16
Maximum angular momentum                    ...      1
Integral batch strategy                     ... SHARK/LIBINT Hybrid
RI-J (if used) integral strategy            ... SPLIT-RIJ (Revised 2003 algorithm where possible)
Printlevel                                  ...      1
Contraction scheme used                     ... SEGMENTED contraction
Coulomb Range Separation                    ... NOT USED
Exchange Range Separation                   ... NOT USED
Finite Nucleus Model                        ... NOT USED
Auxiliary Coulomb fitting basis             ... NOT available
Auxiliary J/K fitting basis                 ... NOT available
Auxiliary Correlation fitting basis         ... NOT available
Auxiliary 'external' fitting basis          ... NOT available
Integral threshold                          ...     2.500000e-11
Primitive cut-off                           ...     2.500000e-12
Primitive pair pre-selection threshold      ...     2.500000e-12

Calculating pre-screening integrals         ... done (  0.0 sec) Dimension = 16
Organizing shell pair data                  ... done (  0.1 sec)
Shell pair information
Total number of shell pairs                 ...       136
Shell pairs after pre-screening             ...       133
Total number of primitive shell pairs       ...      1224
Primitive shell pairs kept                  ...      1003
          la=0 lb=0:     75 shell pairs
          la=1 lb=0:     48 shell pairs
          la=1 lb=1:     10 shell pairs

Calculating one electron integrals          ... done (  0.0 sec)
Calculating Nuclear repulsion               ... done (  0.2 sec) ENN=    106.869448081664 Eh
Calculating 4-index integrals               ... 
    -> SHARK/Ints2Disk: Thresh =     2.500000e-11 TCut=    2.500000e-12 
    -> calling libint FockFlag=2 Lmax_loc=1
    ->Total LIBINT loop time =    0.000 sec
    -> L=0 0 0 0:     0.003 sec done=      2832 (=100.0%) skipped=         0 
    -> L=1 0 0 0:     0.008 sec done=      3597 (=100.0%) skipped=         0 
    -> L=1 0 1 0:     0.004 sec done=      1176 (=100.0%) skipped=         0 
    -> L=1 1 0 0:     0.003 sec done=       750 (=100.0%) skipped=         0 
    -> L=1 1 1 0:     0.004 sec done=       480 (=100.0%) skipped=         0 
    -> L=1 1 1 1:     0.001 sec done=        55 (=100.0%) skipped=         0 
    ->Total SHARK integral loop time =    0.045 sec
    -> Total Integral generation matrix time =    0.670 sec
    -> Number of small integrals   =       502
    -> Number of medium integrals  =      2183
    -> Number of large integrals   =     41099
    -> Number of MB stored         =         0 MB


SHARK setup successfully completed in   2.6 seconds

Maximum memory used throughout the entire GTOINT-calculation: 29.5 MB
-------------------------------------------------------------------------------
                                 ORCA SCF
-------------------------------------------------------------------------------

------------
SCF SETTINGS
------------
Hamiltonian:
 Ab initio Hamiltonian  Method          .... Hartree-Fock(GTOs)


General Settings:
 Integral files         IntName         .... acrolien.150
 Hartree-Fock type      HFTyp           .... RHF
 Total Charge           Charge          ....    0
 Multiplicity           Mult            ....    1
 Number of Electrons    NEL             ....   30
 Basis Dimension        Dim             ....   24
 Nuclear Repulsion      ENuc            ....    106.8694480817 Eh

Convergence Acceleration:
 DIIS                   CNVDIIS         .... on
   Start iteration      DIISMaxIt       ....    12
   Startup error        DIISStart       ....  0.200000
   # of expansion vecs  DIISMaxEq       ....     5
   Bias factor          DIISBfac        ....   1.050
   Max. coefficient     DIISMaxC        ....  10.000
 Trust-Rad. Augm. Hess. CNVTRAH         .... auto
   Auto Start mean grad. ratio tolernc. ....  1.125000
   Auto Start start iteration           ....    20
   Auto Start num. interpolation iter.  ....    10
   Max. Number of Micro iterations      ....    16
   Max. Number of Macro iterations      .... Maxiter - #DIIS iter
   Number of Davidson start vectors     ....     2
   Converg. threshold I  (grad. norm)   ....   1.000e-05
   Converg. threshold II (energy diff.) ....   1.000e-08
   Grad. Scal. Fac. for Micro threshold ....   0.100
   Minimum threshold for Micro iter.    ....   0.010
   NR start threshold (gradient norm)   ....   0.001
   Initial trust radius                 ....   0.400
   Minimum AH scaling param. (alpha)    ....   1.000
   Maximum AH scaling param. (alpha)    .... 1000.000
   Orbital update algorithm             .... Taylor
   White noise on init. David. guess    .... on
   Maximum white noise                  ....   0.010
   Quad. conv. algorithm                .... NR
 SOSCF                  CNVSOSCF        .... on
   Start iteration      SOSCFMaxIt      ....   150
   Startup grad/error   SOSCFStart      ....  0.003300
 Level Shifting         CNVShift        .... on
   Level shift para.    LevelShift      ....    0.2500
   Turn off err/grad.   ShiftErr        ....    0.0010
 Zerner damping         CNVZerner       .... off
 Static damping         CNVDamp         .... on
   Fraction old density DampFac         ....    0.7000
   Max. Damping (<1)    DampMax         ....    0.9800
   Min. Damping (>=0)   DampMin         ....    0.0000
   Turn off err/grad.   DampErr         ....    0.1000
 Fernandez-Rico         CNVRico         .... off

SCF Procedure:
 Maximum # iterations   MaxIter         ....   500
 SCF integral mode      SCFMode         .... Conventional
 Integral Threshold     Thresh          ....  2.500e-11 Eh
 Primitive CutOff       TCut            ....  2.500e-12 Eh
 Integral Buffer length BufferLength    .... 1048576
 Integral index format  IndFormat       ....     0
 Integral value format  ValFormat       ....     0
 Integral Storage       Thresh          ....  2.500e-11 Eh

Convergence Tolerance:
 Convergence Check Mode ConvCheckMode   .... Total+1el-Energy
 Convergence forced     ConvForced      .... 1
 Energy Change          TolE            ....  1.000e-08 Eh
 1-El. energy change                    ....  1.000e-05 Eh
 Orbital Gradient       TolG            ....  1.000e-05
 Orbital Rotation angle TolX            ....  1.000e-05
 DIIS Error             TolErr          ....  5.000e-07


Diagonalization of the overlap matrix:
Smallest eigenvalue                        ... 1.681e-01
Time for diagonalization                   ...    0.000 sec
Threshold for overlap eigenvalues          ... 1.000e-08
Number of eigenvalues below threshold      ... 0
Time for construction of square roots      ...    0.001 sec
Total time needed                          ...    0.001 sec

--------------------------------
INITIAL GUESS: MINIMAL BASIS EHT
--------------------------------
The minimal basis has 24 functions
EHT matrix was diagonalized
Basis set overlap was calculated now projecting the orbitals
Using GuessMode=FMatrix for the initial guess
C*T matrix was formed
Effective Fockian was calculated
Effective Fockian was diagonalized
Initial density was built
                      ------------------
                      INITIAL GUESS DONE
                      ------------------

 InCore treatment chosen:
   Memory dedicated               ...    1024 MB
   Memory needed                  ...      0 MB
   Number of tiny    integrals    ...     502
   Number of small   integrals    ...    2183
   Number of regular integrals    ...   41099

--------------
SCF ITERATIONS
--------------
ITER       Energy         Delta-E        Max-DP      RMS-DP      [F,P]     Damp
  0   -188.9925120070   0.000000000000 0.13522993  0.01410007  0.3225992 0.7000
  1   -189.1139224356  -0.121410428590 0.11228427  0.01128905  0.2137500 0.7000
                               ***Turning on DIIS***
  2   -189.1944381272  -0.080515691584 0.07046756  0.00744113  0.1378329 0.7000
  3   -189.2113978663  -0.016959739151 0.11834982  0.01523753  0.0992546 0.0000
  4   -189.3760375924  -0.164639726075 0.01578932  0.00177480  0.0066219 0.0000
  5   -189.3766795647  -0.000641972271 0.00724656  0.00077020  0.0045877 0.0000
                      *** Initiating the SOSCF procedure ***
                           *** Shutting down DIIS ***
                      *** Re-Reading the Fockian *** 
                      *** Removing any level shift *** 
ITER      Energy       Delta-E        Grad      Rot      Max-DP    RMS-DP
  6   -189.37734424  -0.0006646766  0.001169  0.001169  0.002172  0.000321
  7   -189.37864776  -0.0013035238  0.000365  0.000585  0.000940  0.000116
  8   -189.37865010  -0.0000023369  0.000208  0.000777  0.001010  0.000125
  9   -189.37865098  -0.0000008793  0.000055  0.000159  0.000325  0.000025
 10   -189.37865106  -0.0000000805  0.000040  0.000182  0.000389  0.000027
 11   -189.37865111  -0.0000000434  0.000016  0.000031  0.000072  0.000006
 12   -189.37865111  -0.0000000032  0.000006  0.000009  0.000032  0.000003
                 **** Energy Check signals convergence ****
              ***Rediagonalizing the Fockian in SOSCF/NRSCF***

               *****************************************************
               *                     SUCCESS                       *
               *           SCF CONVERGED AFTER  13 CYCLES          *
               *****************************************************


----------------
TOTAL SCF ENERGY
----------------

Total Energy       :         -189.37865111 Eh           -5153.25508 eV

Components:
Nuclear Repulsion  :          106.86944808 Eh            2908.06553 eV
Electronic Energy  :         -296.24809919 Eh           -8061.32061 eV
One Electron Energy:         -468.45161491 Eh          -12747.21650 eV
Two Electron Energy:          172.20351572 Eh            4685.89589 eV

Virial components:
Potential Energy   :         -378.66580622 Eh          -10304.02043 eV
Kinetic Energy     :          189.28715512 Eh            5150.76535 eV
Virial Ratio       :            2.00048337


---------------
SCF CONVERGENCE
---------------

  Last Energy change         ...   -4.9130e-10  Tolerance :   1.0000e-08
  Last MAX-Density change    ...    7.4303e-06  Tolerance :   1.0000e-07
  Last RMS-Density change    ...    9.3622e-07  Tolerance :   5.0000e-09
  Last Orbital Gradient      ...    1.6900e-06  Tolerance :   1.0000e-05
  Last Orbital Rotation      ...    5.1228e-06  Tolerance :   1.0000e-05

             **** THE GBW FILE WAS UPDATED (acrolien.150.gbw) ****
             **** DENSITY acrolien.150.scfp WAS UPDATED ****
             **** ENERGY FILE WAS UPDATED (acrolien.150.en.tmp) ****
             **** THE GBW FILE WAS UPDATED (acrolien.150.gbw) ****
             **** DENSITY acrolien.150.scfp WAS UPDATED ****
----------------
ORBITAL ENERGIES
----------------

  NO   OCC          E(Eh)            E(eV) 
   0   2.0000     -20.370704      -554.3150 
   1   2.0000     -11.299512      -307.4754 
   2   2.0000     -11.193631      -304.5942 
   3   2.0000     -11.184970      -304.3585 
   4   2.0000      -1.436180       -39.0804 
   5   2.0000      -1.094696       -29.7882 
   6   2.0000      -0.878014       -23.8920 
   7   2.0000      -0.736892       -20.0518 
   8   2.0000      -0.720157       -19.5965 
   9   2.0000      -0.614809       -16.7298 
  10   2.0000      -0.599266       -16.3068 
  11   2.0000      -0.563576       -15.3357 
  12   2.0000      -0.520162       -14.1543 
  13   2.0000      -0.408668       -11.1204 
  14   2.0000      -0.401053       -10.9132 
  15   0.0000       0.152809         4.1581 
  16   0.0000       0.324324         8.8253 
  17   0.0000       0.497706        13.5433 
  18   0.0000       0.557730        15.1766 
  19   0.0000       0.675745        18.3880 
  20   0.0000       0.701452        19.0875 
  21   0.0000       0.847956        23.0740 
  22   0.0000       0.955823        26.0093 
  23   0.0000       1.125282        30.6205 

                    ********************************
                    * MULLIKEN POPULATION ANALYSIS *
                    ********************************

-----------------------
MULLIKEN ATOMIC CHARGES
-----------------------
   0 C :    0.193737
   1 O :   -0.376694
   2 C :   -0.215336
   3 C :   -0.191059
   4 H :    0.121640
   5 H :    0.145364
   6 H :    0.173465
   7 H :    0.148883
Sum of atomic charges:   -0.0000000

--------------------------------
MULLIKEN REDUCED ORBITAL CHARGES
--------------------------------
  0 C s       :     3.040299  s :     3.040299
      pz      :     0.848913  p :     2.765964
      px      :     1.065055
      py      :     0.851996
  1 O s       :     3.817424  s :     3.817424
      pz      :     1.206406  p :     4.559270
      px      :     1.893231
      py      :     1.459634
  2 C s       :     3.061978  s :     3.061978
      pz      :     1.079210  p :     3.153358
      px      :     0.998095
      py      :     1.076054
  3 C s       :     3.166638  s :     3.166638
      pz      :     0.873785  p :     3.024421
      px      :     1.054834
      py      :     1.095802
  4 H s       :     0.878360  s :     0.878360
  5 H s       :     0.854636  s :     0.854636
  6 H s       :     0.826535  s :     0.826535
  7 H s       :     0.851117  s :     0.851117


                     *******************************
                     * LOEWDIN POPULATION ANALYSIS *
                     *******************************

----------------------
LOEWDIN ATOMIC CHARGES
----------------------
   0 C :    0.159598
   1 O :   -0.266119
   2 C :   -0.165286
   3 C :   -0.102496
   4 H :    0.058814
   5 H :    0.087201
   6 H :    0.127487
   7 H :    0.100801

-------------------------------
LOEWDIN REDUCED ORBITAL CHARGES
-------------------------------
  0 C s       :     2.972117  s :     2.972117
      pz      :     0.854301  p :     2.868285
      px      :     1.069017
      py      :     0.944967
  1 O s       :     3.667420  s :     3.667420
      pz      :     1.202771  p :     4.598699
      px      :     1.895858
      py      :     1.500071
  2 C s       :     2.947581  s :     2.947581
      pz      :     1.072379  p :     3.217705
      px      :     1.062673
      py      :     1.082653
  3 C s       :     3.038629  s :     3.038629
      pz      :     0.878709  p :     3.063867
      px      :     1.088117
      py      :     1.097041
  4 H s       :     0.941186  s :     0.941186
  5 H s       :     0.912799  s :     0.912799
  6 H s       :     0.872513  s :     0.872513
  7 H s       :     0.899199  s :     0.899199


                      *****************************
                      * MAYER POPULATION ANALYSIS *
                      *****************************

  NA   - Mulliken gross atomic population
  ZA   - Total nuclear charge
  QA   - Mulliken gross atomic charge
  VA   - Mayer's total valence
  BVA  - Mayer's bonded valence
  FA   - Mayer's free valence

  ATOM       NA         ZA         QA         VA         BVA        FA
  0 C      5.8063     6.0000     0.1937     3.8616     3.8616    -0.0000
  1 O      8.3767     8.0000    -0.3767     2.0775     2.0775    -0.0000
  2 C      6.2153     6.0000    -0.2153     3.9723     3.9723    -0.0000
  3 C      6.1911     6.0000    -0.1911     3.9229     3.9229    -0.0000
  4 H      0.8784     1.0000     0.1216     0.9852     0.9852    -0.0000
  5 H      0.8546     1.0000     0.1454     0.9789     0.9789     0.0000
  6 H      0.8265     1.0000     0.1735     0.9699     0.9699     0.0000
  7 H      0.8511     1.0000     0.1489     0.9778     0.9778    -0.0000

  Mayer bond orders larger than 0.100000
B(  0-C ,  1-O ) :   1.9143 B(  0-C ,  2-C ) :   1.0010 B(  0-C ,  4-H ) :   0.9199 
B(  2-C ,  3-C ) :   1.9541 B(  2-C ,  5-H ) :   0.9598 B(  3-C ,  6-H ) :   0.9406 
B(  3-C ,  7-H ) :   0.9596 

-------
TIMINGS
-------

Total SCF time: 0 days 0 hours 0 min 4 sec 

Total time                  ....       4.501 sec
Sum of individual times     ....       0.680 sec  ( 15.1%)

Fock matrix formation       ....       0.105 sec  (  2.3%)
Diagonalization             ....       0.001 sec  (  0.0%)
Density matrix formation    ....       0.000 sec  (  0.0%)
Population analysis         ....       0.419 sec  (  9.3%)
Initial guess               ....       0.002 sec  (  0.0%)
Orbital Transformation      ....       0.000 sec  (  0.0%)
Orbital Orthonormalization  ....       0.000 sec  (  0.0%)
DIIS solution               ....       0.001 sec  (  0.0%)
SOSCF solution              ....       0.151 sec  (  3.4%)

Maximum memory used throughout the entire SCF-calculation: 225.0 MB
------------------------------------------------------------------------------
                         ORCA CIS CALCULATION
------------------------------------------------------------------------------

Input orbitals are from        ... acrolien.150.gbw
CI-vector output               ... acrolien.150.cis
Tamm-Dancoff approximation     ... operative
CIS-Integral strategy          ... AO-integrals
Integral handling              ... AO integral Conventional
Reference state                ... RHF
Generation of triplets         ... off
Follow IRoot                   ... off
Number of operators            ... 1
Orbital ranges used for CIS calculation:
 Operator 0:  Orbitals   4... 14  to  15... 23
XAS localization array:
 Operator 0:  Orbitals  -1... -1

------------------------
DAVIDSON-DIAGONALIZATION
------------------------

Dimension of the eigenvalue problem            ...     99
Number of roots to be determined               ...      1
Maximum size of the expansion space            ...     10
Maximum number of iterations                   ...    100
Convergence tolerance for the residual         ...    2.500e-07
Convergence tolerance for the energies         ...    2.500e-07
Orthogonality tolerance                        ...    1.000e-14
Level Shift                                    ...    0.000e+00
Constructing the preconditioner                ... o.k.
Building the initial guess                     ... o.k.
Number of trial vectors determined             ...     10


                       ****Iteration    0****

   Memory handling for direct AO based CIS:
   Memory per vector needed      ...     1 MB
   Memory needed                 ...     0 MB
   Memory available              ...   512 MB
   Number of vectors per batch   ...   512
   Number of batches             ...     1
   Time for densities:            0.000
   SHARK[4]
   Time for Sigma-Completion:     0.000
   Size of expansion space: 3
   Lowest Energy          :     0.222981303563
   Maximum Energy change  :     0.222981303563 (vector 0)
   Maximum residual norm  :     0.014363561306

                       ****Iteration    1****
   Time for densities:            0.000
   SHARK[4]
   Time for Sigma-Completion:     0.000
   Size of expansion space: 4
   Lowest Energy          :     0.169559423152
   Maximum Energy change  :     0.053421880411 (vector 0)
   Maximum residual norm  :     0.001373172976

                       ****Iteration    2****
   Time for densities:            0.000
   SHARK[4]
   Time for Sigma-Completion:     0.000
   Size of expansion space: 5
   Lowest Energy          :     0.165860954510
   Maximum Energy change  :     0.003698468642 (vector 0)
   Maximum residual norm  :     0.000110211613

                       ****Iteration    3****
   Time for densities:            0.000
   SHARK[4]
   Time for Sigma-Completion:     0.000
   Size of expansion space: 6
   Lowest Energy          :     0.165646788784
   Maximum Energy change  :     0.000214165726 (vector 0)
   Maximum residual norm  :     0.000011878909

                       ****Iteration    4****
   Time for densities:            0.000
   SHARK[4]
   Time for Sigma-Completion:     0.000
   Size of expansion space: 7
   Lowest Energy          :     0.165628872307
   Maximum Energy change  :     0.000017916477 (vector 0)
   Maximum residual norm  :     0.000001089945

                       ****Iteration    5****
   Time for densities:            0.000
   SHARK[4]
   Time for Sigma-Completion:     0.000
   Size of expansion space: 8
   Lowest Energy          :     0.165627446517
   Maximum Energy change  :     0.000001425790 (vector 0)
   Maximum residual norm  :     0.000000063706

      *** CONVERGENCE OF RESIDUAL NORM REACHED ***

Storing the converged CI vectors               ... acrolien.150.cis1

                 *** DAVIDSON DONE ***

Total time for solving the CIS problem:     1.531sec

-----------------------------
CIS-EXCITED STATES (SINGLETS)
-----------------------------

the weight of the individual excitations are printed if larger than 1.0e-02

STATE  1:  E=   0.165627 au      4.507 eV    36351.0 cm**-1 <S**2> =   0.000000
    12a ->  15a  :     0.011163 (c= -0.10565605)
    13a ->  15a  :     0.017369 (c=  0.13179338)
    14a ->  15a  :     0.762836 (c= -0.87340464)
    14a ->  16a  :     0.160242 (c=  0.40030269)


----------------------
CIS-EXCITATION SPECTRA
----------------------

Center of mass = ( -0.5342, -0.6251, -0.0492)
Calculating the Dipole integrals                  ... done
Transforming integrals                            ... done
Calculating the Linear Momentum integrals         ... done
Transforming integrals                            ... done
Calculating angular momentum integrals            ... done
Transforming integrals                            ... done

-----------------------------------------------------------------------------
         ABSORPTION SPECTRUM VIA TRANSITION ELECTRIC DIPOLE MOMENTS
-----------------------------------------------------------------------------
State   Energy    Wavelength  fosc         T2        TX        TY        TZ  
        (cm-1)      (nm)                 (au**2)    (au)      (au)      (au) 
-----------------------------------------------------------------------------
   1   36351.0    275.1   0.000068726   0.00062   0.00553  -0.00230   0.02422

-----------------------------------------------------------------------------
         ABSORPTION SPECTRUM VIA TRANSITION VELOCITY DIPOLE MOMENTS
-----------------------------------------------------------------------------
State   Energy    Wavelength   fosc        P2         PX        PY        PZ  
        (cm-1)      (nm)                 (au**2)     (au)      (au)      (au) 
-----------------------------------------------------------------------------
   1   36351.0    275.1   0.001267399   0.00031  -0.00063   0.00027  -0.01773

-------------------------------------------------------------------
                             CD SPECTRUM
-------------------------------------------------------------------
State  Energy     Wavelength     R         MX        MY        MZ   
       (cm-1)       (nm)     (1e40*cgs)   (au)      (au)      (au)  
-------------------------------------------------------------------
   1   36351.0    275.1     -0.28761   0.04981   0.47207   0.00827

-------------------------------------------------------------------
         CD SPECTRUM VIA TRANSITION VELOCITY DIPOLE MOMENTS        
-------------------------------------------------------------------
State  Energy     Wavelength     R         MX        MY        MZ   
       (cm-1)       (nm)     (1e40*cgs)   (au)      (au)      (au)  
-------------------------------------------------------------------
   1   36351.0    275.1     -0.15066   0.04981   0.47207   0.00827

Total run time:        2.037 sec

           *** ORCA-CIS/TD-DFT FINISHED WITHOUT ERROR ***

Maximum memory used throughout the entire CIS-calculation: 51.7 MB

-----------------------
CIS/TD-DFT TOTAL ENERGY
-----------------------

    E(SCF)  =   -189.378651109 Eh
    DE(CIS) =      0.165627447 Eh (Root  1)
    ----------------------------- ---------
    E(tot)  =   -189.213023662 Eh



-------------------------------------------------------------------------------
                          DFT DISPERSION CORRECTION                            
                                                                               
                              DFTD3 V3.1  Rev 1                                
                          USING Becke-Johnson damping                          
-------------------------------------------------------------------------------
Hartree-Fock is recognized
Active option DFTDOPT                   ...         4   

molecular C6(AA) [au] = 661.027444 


            DFT-D V3
 parameters
 using HF/MINIX parameters
 s6 scaling factor         :     1.0000 
 a1 scaling factor         :     0.4171 
 s8 scaling factor         :     0.8777 
 a2 scaling factor         :     2.9149 
 ad hoc parameters k1-k3   :    16.0000     1.3333    -4.0000 

 Edisp/kcal,au: -16.656083640753  -0.026543156004 
 E6   /kcal   :  -9.193800373 
 E8   /kcal   :  -7.462283267 
 % E8         :  44.802148142 

-------------------------   ----------------
Dispersion correction           -0.026543156
-------------------------   ----------------

------------------   -----------------
gCP+bas correction        -0.061317437
------------------   -----------------
----------------------------   ----------------
Total correction to HF/MINIX       -0.087860593
----------------------------   ----------------


-------------------------   --------------------
FINAL SINGLE POINT ENERGY      -189.300884255394
-------------------------   --------------------


                            ***************************************
                            *     ORCA property calculations      *
                            ***************************************

                                    ---------------------
                                    Active property flags
                                    ---------------------
   (+) Dipole Moment


------------------------------------------------------------------------------
                       ORCA ELECTRIC PROPERTIES CALCULATION
------------------------------------------------------------------------------

Dipole Moment Calculation                       ... on
Quadrupole Moment Calculation                   ... off
Polarizability Calculation                      ... off
GBWName                                         ... acrolien.150.gbw
Electron density                                ... acrolien.150.scfp
The origin for moment calculation is the CENTER OF MASS  = (-0.534194, -0.625138 -0.049204)

-------------
DIPOLE MOMENT
-------------
                                X             Y             Z
Electronic contribution:     -1.57828      -1.51744      -0.13802
Nuclear contribution   :      1.99443       2.31058       0.18433
                        -----------------------------------------
Total Dipole Moment    :      0.41615       0.79314       0.04631
                        -----------------------------------------
Magnitude (a.u.)       :      0.89688
Magnitude (Debye)      :      2.27969



--------------------
Rotational spectrum 
--------------------
 
Rotational constants in cm-1:     0.792222     0.219690     0.172143 
Rotational constants in MHz : 23750.222953  6586.139196  5160.726049 

 Dipole components along the rotational axes: 
x,y,z [a.u.] :     0.786594    -0.429557     0.033802 
x,y,z [Debye]:     1.999364    -1.091848     0.085917 

 

Timings for individual modules:

Sum of individual times         ...       12.065 sec (=   0.201 min)
GTO integral calculation        ...        4.127 sec (=   0.069 min)  34.2 %
SCF iterations                  ...        5.738 sec (=   0.096 min)  47.6 %
CIS module                      ...        2.200 sec (=   0.037 min)  18.2 %
                             ****ORCA TERMINATED NORMALLY****
TOTAL RUN TIME: 0 days 0 hours 0 minutes 16 seconds 111 msec
