
                                 *****************
                                 * O   R   C   A *
                                 *****************

                                            #,                                       
                                            ###                                      
                                            ####                                     
                                            #####                                    
                                            ######                                   
                                           ########,                                 
                                     ,,################,,,,,                         
                               ,,#################################,,                 
                          ,,##########################################,,             
                       ,#########################################, ''#####,          
                    ,#############################################,,   '####,        
                  ,##################################################,,,,####,       
                ,###########''''           ''''###############################       
              ,#####''   ,,,,##########,,,,          '''####'''          '####       
            ,##' ,,,,###########################,,,                        '##       
           ' ,,###''''                  '''############,,,                           
         ,,##''                                '''############,,,,        ,,,,,,###''
      ,#''                                            '''#######################'''  
     '                                                          ''''####''''         
             ,#######,   #######,   ,#######,      ##                                
            ,#'     '#,  ##    ##  ,#'     '#,    #''#        ######   ,####,        
            ##       ##  ##   ,#'  ##            #'  '#       #        #'  '#        
            ##       ##  #######   ##           ,######,      #####,   #    #        
            '#,     ,#'  ##    ##  '#,     ,#' ,#      #,         ##   #,  ,#        
             '#######'   ##     ##  '#######'  #'      '#     #####' # '####'        



                  #######################################################
                  #                        -***-                        #
                  #          Department of theory and spectroscopy      #
                  #    Directorship and core code : Frank Neese         #
                  #        Max Planck Institute fuer Kohlenforschung    #
                  #                Kaiser Wilhelm Platz 1               #
                  #                 D-45470 Muelheim/Ruhr               #
                  #                      Germany                        #
                  #                                                     #
                  #                  All rights reserved                #
                  #                        -***-                        #
                  #######################################################


                         Program Version 5.0.3 -  RELEASE  -


 With contributions from (in alphabetic order):
   Daniel Aravena         : Magnetic Suceptibility
   Michael Atanasov       : Ab Initio Ligand Field Theory (pilot matlab implementation)
   Alexander A. Auer      : GIAO ZORA, VPT2 properties, NMR spectrum
   Ute Becker             : Parallelization
   Giovanni Bistoni       : ED, misc. LED, open-shell LED, HFLD
   Martin Brehm           : Molecular dynamics
   Dmytro Bykov           : SCF Hessian
   Vijay G. Chilkuri      : MRCI spin determinant printing, contributions to CSF-ICE
   Dipayan Datta          : RHF DLPNO-CCSD density
   Achintya Kumar Dutta   : EOM-CC, STEOM-CC
   Dmitry Ganyushin       : Spin-Orbit,Spin-Spin,Magnetic field MRCI
   Miquel Garcia          : C-PCM and meta-GGA Hessian, CC/C-PCM, Gaussian charge scheme
   Yang Guo               : DLPNO-NEVPT2, F12-NEVPT2, CIM, IAO-localization
   Andreas Hansen         : Spin unrestricted coupled pair/coupled cluster methods
   Benjamin Helmich-Paris : MC-RPA, TRAH-SCF, COSX integrals
   Lee Huntington         : MR-EOM, pCC
   Robert Izsak           : Overlap fitted RIJCOSX, COSX-SCS-MP3, EOM
   Marcus Kettner         : VPT2
   Christian Kollmar      : KDIIS, OOCD, Brueckner-CCSD(T), CCSD density, CASPT2, CASPT2-K
   Simone Kossmann        : Meta GGA functionals, TD-DFT gradient, OOMP2, MP2 Hessian
   Martin Krupicka        : Initial AUTO-CI
   Lucas Lang             : DCDCAS
   Marvin Lechner         : AUTO-CI (C++ implementation), FIC-MRCC
   Dagmar Lenk            : GEPOL surface, SMD
   Dimitrios Liakos       : Extrapolation schemes; Compound Job, initial MDCI parallelization
   Dimitrios Manganas     : Further ROCIS development; embedding schemes
   Dimitrios Pantazis     : SARC Basis sets
   Anastasios Papadopoulos: AUTO-CI, single reference methods and gradients
   Taras Petrenko         : DFT Hessian,TD-DFT gradient, ASA, ECA, R-Raman, ABS, FL, XAS/XES, NRVS
   Peter Pinski           : DLPNO-MP2, DLPNO-MP2 Gradient
   Christoph Reimann      : Effective Core Potentials
   Marius Retegan         : Local ZFS, SOC
   Christoph Riplinger    : Optimizer, TS searches, QM/MM, DLPNO-CCSD(T), (RO)-DLPNO pert. Triples
   Tobias Risthaus        : Range-separated hybrids, TD-DFT gradient, RPA, STAB
   Michael Roemelt        : Original ROCIS implementation
   Masaaki Saitow         : Open-shell DLPNO-CCSD energy and density
   Barbara Sandhoefer     : DKH picture change effects
   Avijit Sen             : IP-ROCIS
   Kantharuban Sivalingam : CASSCF convergence, NEVPT2, FIC-MRCI
   Bernardo de Souza      : ESD, SOC TD-DFT
   Georgi Stoychev        : AutoAux, RI-MP2 NMR, DLPNO-MP2 response
   Willem Van den Heuvel  : Paramagnetic NMR
   Boris Wezisla          : Elementary symmetry handling
   Frank Wennmohs         : Technical directorship


 We gratefully acknowledge several colleagues who have allowed us to
 interface, adapt or use parts of their codes:
   Stefan Grimme, W. Hujo, H. Kruse, P. Pracht,  : VdW corrections, initial TS optimization,
                  C. Bannwarth, S. Ehlert          DFT functionals, gCP, sTDA/sTD-DF
   Ed Valeev, F. Pavosevic, A. Kumar             : LibInt (2-el integral package), F12 methods
   Garnet Chan, S. Sharma, J. Yang, R. Olivares  : DMRG
   Ulf Ekstrom                                   : XCFun DFT Library
   Mihaly Kallay                                 : mrcc  (arbitrary order and MRCC methods)
   Jiri Pittner, Ondrej Demel                    : Mk-CCSD
   Frank Weinhold                                : gennbo (NPA and NBO analysis)
   Christopher J. Cramer and Donald G. Truhlar   : smd solvation model
   Lars Goerigk                                  : TD-DFT with DH, B97 family of functionals
   V. Asgeirsson, H. Jonsson                     : NEB implementation
   FAccTs GmbH                                   : IRC, NEB, NEB-TS, DLPNO-Multilevel, CI-OPT
                                                   MM, QMMM, 2- and 3-layer-ONIOM, Crystal-QMMM,
                                                   LR-CPCM, SF, NACMEs, symmetry and pop. for TD-DFT,
                                                   nearIR, NL-DFT gradient (VV10), updates on ESD,
                                                   ML-optimized integration grids
   S Lehtola, MJT Oliveira, MAL Marques          : LibXC Library
   Liviu Ungur et al                             : ANISO software


 Your calculation uses the libint2 library for the computation of 2-el integrals
 For citations please refer to: http://libint.valeyev.net

 Your ORCA version has been built with support for libXC version: 5.1.0
 For citations please refer to: https://tddft.org/programs/libxc/

 This ORCA versions uses:
   CBLAS   interface :  Fast vector & matrix operations
   LAPACKE interface :  Fast linear algebra routines
   SCALAPACK package :  Parallel linear algebra routines
   Shared memory     :  Shared parallel matrices
   BLAS/LAPACK       :  OpenBLAS 0.3.15  USE64BITINT DYNAMIC_ARCH NO_AFFINITY Haswell SINGLE_THREADED
        Core in use  :  Haswell
   Copyright (c) 2011-2014, The OpenBLAS Project


Your calculation utilizes the geometrical counterpoise correction gCP
Please cite in your paper:
H.Kruse, S. Grimme J.Chem.Phys., 136, (2012), 154101 
   

Your calculation utilizes the atom-pairwise dispersion correction
with the Becke-Johnson damping scheme (D3BJ)
Cite in your paper:
S.Grimme, S.Ehrlich, L.Goerigk, J Comput Chem, (2011), 32, 1456–1465 
S.Grimme, J.Antony, S.Ehrlich and H.Krieg, J.Chem.Phys., 132, (2010), 154104 
   

================================================================================

----- Orbital basis set information -----
Your calculation utilizes the basis: MINIX,
   a combination of small basis sets by S. Grimme (see manual for definitions).

================================================================================
                                        WARNINGS
                       Please study these warnings very carefully!
================================================================================

INFO   : Checking CIS options ...

INFO   : the flag for use of the SHARK integral package has been found!

================================================================================
                                       INPUT FILE
================================================================================
NAME = acrolien.326.com
|  1> ! HF-3c
|  2> !TightSCF
|  3> %scf
|  4>  ConvForced true
|  5>  convergence tight
|  6>  MaxIter 500
|  7> end
|  8>  
|  9> %tddft 
| 10>  nroots 1
| 11> end
| 12> 
| 13> # 	7701
| 14> * xyz 0 1
| 15> 		C   -1.244389  -0.401555  -0.035269
| 16> 		O   -1.301414  -1.564355   0.145727
| 17> 		C   -0.020196   0.435685   0.073518
| 18> 		C    1.239096  -0.039721  -0.021016
| 19> 		H   -2.147818   0.279646  -0.223986
| 20> 		H   -0.230357   1.551444   0.295513
| 21> 		H    1.522575  -0.977949  -0.179310
| 22> 		H    2.131257   0.727965  -0.084715
| 23> *
| 24> 
| 25>                          ****END OF INPUT****
================================================================================

                       ****************************
                       * Single Point Calculation *
                       ****************************

---------------------------------
CARTESIAN COORDINATES (ANGSTROEM)
---------------------------------
  C     -1.244389   -0.401555   -0.035269
  O     -1.301414   -1.564355    0.145727
  C     -0.020196    0.435685    0.073518
  C      1.239096   -0.039721   -0.021016
  H     -2.147818    0.279646   -0.223986
  H     -0.230357    1.551444    0.295513
  H      1.522575   -0.977949   -0.179310
  H      2.131257    0.727965   -0.084715

----------------------------
CARTESIAN COORDINATES (A.U.)
----------------------------
  NO LB      ZA    FRAG     MASS         X           Y           Z
   0 C     6.0000    0    12.011   -2.351554   -0.758829   -0.066649
   1 O     8.0000    0    15.999   -2.459316   -2.956203    0.275384
   2 C     6.0000    0    12.011   -0.038165    0.823325    0.138929
   3 C     6.0000    0    12.011    2.341552   -0.075062   -0.039714
   4 H     1.0000    0     1.008   -4.058788    0.528454   -0.423272
   5 H     1.0000    0     1.008   -0.435312    2.931804    0.558439
   6 H     1.0000    0     1.008    2.877250   -1.848056   -0.338847
   7 H     1.0000    0     1.008    4.027492    1.375654   -0.160088

--------------------------------
INTERNAL COORDINATES (ANGSTROEM)
--------------------------------
 C      0   0   0     0.000000000000     0.00000000     0.00000000
 O      1   0   0     1.178183025952     0.00000000     0.00000000
 C      1   2   0     1.487095803981   125.75061852     0.00000000
 C      3   1   2     1.349356840593   124.38711871    21.81769522
 H      1   2   3     1.147097583700   124.97703323   186.30266907
 H      3   1   2     1.156878373913   114.04686777   204.29152906
 H      4   3   1     0.992818771912   127.63212583     0.62191794
 H      4   3   1     1.178707176154   118.73107626   170.79581111

---------------------------
INTERNAL COORDINATES (A.U.)
---------------------------
 C      0   0   0     0.000000000000     0.00000000     0.00000000
 O      1   0   0     2.226443254684     0.00000000     0.00000000
 C      1   2   0     2.810203804428   125.75061852     0.00000000
 C      3   1   2     2.549914885655   124.38711871    21.81769522
 H      1   2   3     2.167700282076   124.97703323   186.30266907
 H      3   1   2     2.186183296951   114.04686777   204.29152906
 H      4   3   1     1.876155579530   127.63212583     0.62191794
 H      4   3   1     2.227433755020   118.73107626   170.79581111

---------------------
BASIS SET INFORMATION
---------------------
There are 3 groups of distinct atoms

 Group   1 Type C   : 6s3p contracted to 2s1p pattern {33/3}
 Group   2 Type O   : 6s3p contracted to 2s1p pattern {33/3}
 Group   3 Type H   : 3s contracted to 1s pattern {3}

Atom   0C    basis set group =>   1
Atom   1O    basis set group =>   2
Atom   2C    basis set group =>   1
Atom   3C    basis set group =>   1
Atom   4H    basis set group =>   3
Atom   5H    basis set group =>   3
Atom   6H    basis set group =>   3
Atom   7H    basis set group =>   3
------------------------------------------------------------------------------
                           ORCA GTO INTEGRAL CALCULATION
------------------------------------------------------------------------------
------------------------------------------------------------------------------
                   ___                                                        
                  /   \      - P O W E R E D   B Y -                         
                 /     \                                                     
                 |  |  |   _    _      __       _____    __    __             
                 |  |  |  | |  | |    /  \     |  _  \  |  |  /  |          
                  \  \/   | |  | |   /    \    | | | |  |  | /  /          
                 / \  \   | |__| |  /  /\  \   | |_| |  |  |/  /          
                |  |  |   |  __  | /  /__\  \  |    /   |      \           
                |  |  |   | |  | | |   __   |  |    \   |  |\   \          
                \     /   | |  | | |  |  |  |  | |\  \  |  | \   \       
                 \___/    |_|  |_| |__|  |__|  |_| \__\ |__|  \__/        
                                                                              
                      - O R C A' S   B I G   F R I E N D -                    
                                      &                                       
                       - I N T E G R A L  F E E D E R -                       
                                                                              
 v1 FN, 2020, v2 2021                                                         
------------------------------------------------------------------------------


Reading SHARK input file acrolien.326.SHARKINP.tmp ... ok
----------------------
SHARK INTEGRAL PACKAGE
----------------------

Number of atoms                             ...      8
Number of basis functions                   ...     24
Number of shells                            ...     16
Maximum angular momentum                    ...      1
Integral batch strategy                     ... SHARK/LIBINT Hybrid
RI-J (if used) integral strategy            ... SPLIT-RIJ (Revised 2003 algorithm where possible)
Printlevel                                  ...      1
Contraction scheme used                     ... SEGMENTED contraction
Coulomb Range Separation                    ... NOT USED
Exchange Range Separation                   ... NOT USED
Finite Nucleus Model                        ... NOT USED
Auxiliary Coulomb fitting basis             ... NOT available
Auxiliary J/K fitting basis                 ... NOT available
Auxiliary Correlation fitting basis         ... NOT available
Auxiliary 'external' fitting basis          ... NOT available
Integral threshold                          ...     2.500000e-11
Primitive cut-off                           ...     2.500000e-12
Primitive pair pre-selection threshold      ...     2.500000e-12

Calculating pre-screening integrals         ... done (  0.0 sec) Dimension = 16
Organizing shell pair data                  ... done (  0.4 sec)
Shell pair information
Total number of shell pairs                 ...       136
Shell pairs after pre-screening             ...       133
Total number of primitive shell pairs       ...      1224
Primitive shell pairs kept                  ...       990
          la=0 lb=0:     75 shell pairs
          la=1 lb=0:     48 shell pairs
          la=1 lb=1:     10 shell pairs

Calculating one electron integrals          ... done (  0.0 sec)
Calculating Nuclear repulsion               ... done (  0.0 sec) ENN=    103.965754848568 Eh
Calculating 4-index integrals               ... 
    -> SHARK/Ints2Disk: Thresh =     2.500000e-11 TCut=    2.500000e-12 
    -> calling libint FockFlag=2 Lmax_loc=1
    ->Total LIBINT loop time =    0.000 sec
    -> L=0 0 0 0:     0.003 sec done=      2820 (=100.0%) skipped=         0 
    -> L=1 0 0 0:     0.007 sec done=      3593 (=100.0%) skipped=         0 
    -> L=1 0 1 0:     0.004 sec done=      1176 (=100.0%) skipped=         0 
    -> L=1 1 0 0:     0.003 sec done=       750 (=100.0%) skipped=         0 
    -> L=1 1 1 0:     0.004 sec done=       480 (=100.0%) skipped=         0 
    -> L=1 1 1 1:     0.001 sec done=        55 (=100.0%) skipped=         0 
    ->Total SHARK integral loop time =    0.022 sec
    -> Total Integral generation matrix time =    0.873 sec
    -> Number of small integrals   =       608
    -> Number of medium integrals  =      2306
    -> Number of large integrals   =     40851
    -> Number of MB stored         =         0 MB


SHARK setup successfully completed in   2.1 seconds

Maximum memory used throughout the entire GTOINT-calculation: 29.5 MB
-------------------------------------------------------------------------------
                                 ORCA SCF
-------------------------------------------------------------------------------

------------
SCF SETTINGS
------------
Hamiltonian:
 Ab initio Hamiltonian  Method          .... Hartree-Fock(GTOs)


General Settings:
 Integral files         IntName         .... acrolien.326
 Hartree-Fock type      HFTyp           .... RHF
 Total Charge           Charge          ....    0
 Multiplicity           Mult            ....    1
 Number of Electrons    NEL             ....   30
 Basis Dimension        Dim             ....   24
 Nuclear Repulsion      ENuc            ....    103.9657548486 Eh

Convergence Acceleration:
 DIIS                   CNVDIIS         .... on
   Start iteration      DIISMaxIt       ....    12
   Startup error        DIISStart       ....  0.200000
   # of expansion vecs  DIISMaxEq       ....     5
   Bias factor          DIISBfac        ....   1.050
   Max. coefficient     DIISMaxC        ....  10.000
 Trust-Rad. Augm. Hess. CNVTRAH         .... auto
   Auto Start mean grad. ratio tolernc. ....  1.125000
   Auto Start start iteration           ....    20
   Auto Start num. interpolation iter.  ....    10
   Max. Number of Micro iterations      ....    16
   Max. Number of Macro iterations      .... Maxiter - #DIIS iter
   Number of Davidson start vectors     ....     2
   Converg. threshold I  (grad. norm)   ....   1.000e-05
   Converg. threshold II (energy diff.) ....   1.000e-08
   Grad. Scal. Fac. for Micro threshold ....   0.100
   Minimum threshold for Micro iter.    ....   0.010
   NR start threshold (gradient norm)   ....   0.001
   Initial trust radius                 ....   0.400
   Minimum AH scaling param. (alpha)    ....   1.000
   Maximum AH scaling param. (alpha)    .... 1000.000
   Orbital update algorithm             .... Taylor
   White noise on init. David. guess    .... on
   Maximum white noise                  ....   0.010
   Quad. conv. algorithm                .... NR
 SOSCF                  CNVSOSCF        .... on
   Start iteration      SOSCFMaxIt      ....   150
   Startup grad/error   SOSCFStart      ....  0.003300
 Level Shifting         CNVShift        .... on
   Level shift para.    LevelShift      ....    0.2500
   Turn off err/grad.   ShiftErr        ....    0.0010
 Zerner damping         CNVZerner       .... off
 Static damping         CNVDamp         .... on
   Fraction old density DampFac         ....    0.7000
   Max. Damping (<1)    DampMax         ....    0.9800
   Min. Damping (>=0)   DampMin         ....    0.0000
   Turn off err/grad.   DampErr         ....    0.1000
 Fernandez-Rico         CNVRico         .... off

SCF Procedure:
 Maximum # iterations   MaxIter         ....   500
 SCF integral mode      SCFMode         .... Conventional
 Integral Threshold     Thresh          ....  2.500e-11 Eh
 Primitive CutOff       TCut            ....  2.500e-12 Eh
 Integral Buffer length BufferLength    .... 1048576
 Integral index format  IndFormat       ....     0
 Integral value format  ValFormat       ....     0
 Integral Storage       Thresh          ....  2.500e-11 Eh

Convergence Tolerance:
 Convergence Check Mode ConvCheckMode   .... Total+1el-Energy
 Convergence forced     ConvForced      .... 1
 Energy Change          TolE            ....  1.000e-08 Eh
 1-El. energy change                    ....  1.000e-05 Eh
 Orbital Gradient       TolG            ....  1.000e-05
 Orbital Rotation angle TolX            ....  1.000e-05
 DIIS Error             TolErr          ....  5.000e-07


Diagonalization of the overlap matrix:
Smallest eigenvalue                        ... 1.903e-01
Time for diagonalization                   ...    0.000 sec
Threshold for overlap eigenvalues          ... 1.000e-08
Number of eigenvalues below threshold      ... 0
Time for construction of square roots      ...    0.001 sec
Total time needed                          ...    0.001 sec

--------------------------------
INITIAL GUESS: MINIMAL BASIS EHT
--------------------------------
The minimal basis has 24 functions
EHT matrix was diagonalized
Basis set overlap was calculated now projecting the orbitals
Using GuessMode=FMatrix for the initial guess
C*T matrix was formed
Effective Fockian was calculated
Effective Fockian was diagonalized
Initial density was built
                      ------------------
                      INITIAL GUESS DONE
                      ------------------

 InCore treatment chosen:
   Memory dedicated               ...    1024 MB
   Memory needed                  ...      0 MB
   Number of tiny    integrals    ...     608
   Number of small   integrals    ...    2306
   Number of regular integrals    ...   40851

--------------
SCF ITERATIONS
--------------
ITER       Energy         Delta-E        Max-DP      RMS-DP      [F,P]     Damp
  0   -189.0614004288   0.000000000000 0.13677154  0.01373209  0.3107752 0.7000
  1   -189.1664460697  -0.105045640870 0.11409323  0.01103606  0.2060798 0.7000
                               ***Turning on DIIS***
  2   -189.2349396281  -0.068493558483 0.07210621  0.00723055  0.1265505 0.7000
  3   -189.2614754336  -0.026535805504 0.11895152  0.01453811  0.0913497 0.0000
  4   -189.3874645525  -0.125989118855 0.01671958  0.00172710  0.0061031 0.0000
  5   -189.3879859282  -0.000521375668 0.00711440  0.00074420  0.0041795 0.0000
                      *** Initiating the SOSCF procedure ***
                           *** Shutting down DIIS ***
                      *** Re-Reading the Fockian *** 
                      *** Removing any level shift *** 
ITER      Energy       Delta-E        Grad      Rot      Max-DP    RMS-DP
  6   -189.38899232  -0.0010063947  0.000896  0.000896  0.002302  0.000310
  7   -189.38945620  -0.0004638736  0.000331  0.000628  0.001009  0.000102
  8   -189.38945838  -0.0000021847  0.000146  0.000536  0.000761  0.000094
  9   -189.38945902  -0.0000006427  0.000050  0.000118  0.000205  0.000018
 10   -189.38945906  -0.0000000412  0.000033  0.000148  0.000257  0.000019
 11   -189.38945909  -0.0000000252  0.000009  0.000046  0.000091  0.000007
                 **** Energy Check signals convergence ****
              ***Rediagonalizing the Fockian in SOSCF/NRSCF***

               *****************************************************
               *                     SUCCESS                       *
               *           SCF CONVERGED AFTER  12 CYCLES          *
               *****************************************************


----------------
TOTAL SCF ENERGY
----------------

Total Energy       :         -189.38945909 Eh           -5153.54918 eV

Components:
Nuclear Repulsion  :          103.96575485 Eh            2829.05202 eV
Electronic Energy  :         -293.35521394 Eh           -7982.60120 eV
One Electron Energy:         -462.77990465 Eh          -12592.88142 eV
Two Electron Energy:          169.42469070 Eh            4610.28022 eV

Virial components:
Potential Energy   :         -378.44524392 Eh          -10298.01863 eV
Kinetic Energy     :          189.05578483 Eh            5144.46945 eV
Virial Ratio       :            2.00176495


---------------
SCF CONVERGENCE
---------------

  Last Energy change         ...   -3.4020e-09  Tolerance :   1.0000e-08
  Last MAX-Density change    ...    2.7913e-05  Tolerance :   1.0000e-07
  Last RMS-Density change    ...    2.7062e-06  Tolerance :   5.0000e-09
  Last Orbital Gradient      ...    6.1488e-06  Tolerance :   1.0000e-05
  Last Orbital Rotation      ...    1.2167e-05  Tolerance :   1.0000e-05

             **** THE GBW FILE WAS UPDATED (acrolien.326.gbw) ****
             **** DENSITY acrolien.326.scfp WAS UPDATED ****
             **** ENERGY FILE WAS UPDATED (acrolien.326.en.tmp) ****
             **** THE GBW FILE WAS UPDATED (acrolien.326.gbw) ****
             **** DENSITY acrolien.326.scfp WAS UPDATED ****
----------------
ORBITAL ENERGIES
----------------

  NO   OCC          E(Eh)            E(eV) 
   0   2.0000     -20.379359      -554.5506 
   1   2.0000     -11.304068      -307.5993 
   2   2.0000     -11.188700      -304.4600 
   3   2.0000     -11.184033      -304.3330 
   4   2.0000      -1.426134       -38.8071 
   5   2.0000      -1.065743       -29.0003 
   6   2.0000      -0.891751       -24.2658 
   7   2.0000      -0.746092       -20.3022 
   8   2.0000      -0.692760       -18.8509 
   9   2.0000      -0.625576       -17.0228 
  10   2.0000      -0.586559       -15.9611 
  11   2.0000      -0.551197       -14.9988 
  12   2.0000      -0.528406       -14.3787 
  13   2.0000      -0.404813       -11.0155 
  14   2.0000      -0.390073       -10.6144 
  15   0.0000       0.137603         3.7444 
  16   0.0000       0.304160         8.2766 
  17   0.0000       0.506323        13.7777 
  18   0.0000       0.596159        16.2223 
  19   0.0000       0.627741        17.0817 
  20   0.0000       0.694061        18.8864 
  21   0.0000       0.824834        22.4449 
  22   0.0000       0.947908        25.7939 
  23   0.0000       1.044576        28.4244 

                    ********************************
                    * MULLIKEN POPULATION ANALYSIS *
                    ********************************

-----------------------
MULLIKEN ATOMIC CHARGES
-----------------------
   0 C :    0.181989
   1 O :   -0.356856
   2 C :   -0.161346
   3 C :   -0.225466
   4 H :    0.129301
   5 H :    0.140414
   6 H :    0.146704
   7 H :    0.145260
Sum of atomic charges:   -0.0000000

--------------------------------
MULLIKEN REDUCED ORBITAL CHARGES
--------------------------------
  0 C s       :     3.050646  s :     3.050646
      pz      :     0.859271  p :     2.767365
      px      :     1.051162
      py      :     0.856931
  1 O s       :     3.824447  s :     3.824447
      pz      :     1.206911  p :     4.532409
      px      :     1.884648
      py      :     1.440850
  2 C s       :     3.100553  s :     3.100553
      pz      :     1.031673  p :     3.060793
      px      :     0.978119
      py      :     1.051001
  3 C s       :     3.137467  s :     3.137467
      pz      :     0.936548  p :     3.087999
      px      :     1.050275
      py      :     1.101176
  4 H s       :     0.870699  s :     0.870699
  5 H s       :     0.859586  s :     0.859586
  6 H s       :     0.853296  s :     0.853296
  7 H s       :     0.854740  s :     0.854740


                     *******************************
                     * LOEWDIN POPULATION ANALYSIS *
                     *******************************

----------------------
LOEWDIN ATOMIC CHARGES
----------------------
   0 C :    0.150759
   1 O :   -0.249525
   2 C :   -0.127305
   3 C :   -0.126418
   4 H :    0.068829
   5 H :    0.094705
   6 H :    0.086952
   7 H :    0.102003

-------------------------------
LOEWDIN REDUCED ORBITAL CHARGES
-------------------------------
  0 C s       :     2.980862  s :     2.980862
      pz      :     0.865465  p :     2.868379
      px      :     1.063943
      py      :     0.938971
  1 O s       :     3.679508  s :     3.679508
      pz      :     1.204653  p :     4.570018
      px      :     1.886479
      py      :     1.478885
  2 C s       :     2.995292  s :     2.995292
      pz      :     1.028449  p :     3.132012
      px      :     1.040852
      py      :     1.062711
  3 C s       :     3.005045  s :     3.005045
      pz      :     0.938816  p :     3.121373
      px      :     1.082887
      py      :     1.099670
  4 H s       :     0.931171  s :     0.931171
  5 H s       :     0.905295  s :     0.905295
  6 H s       :     0.913048  s :     0.913048
  7 H s       :     0.897997  s :     0.897997


                      *****************************
                      * MAYER POPULATION ANALYSIS *
                      *****************************

  NA   - Mulliken gross atomic population
  ZA   - Total nuclear charge
  QA   - Mulliken gross atomic charge
  VA   - Mayer's total valence
  BVA  - Mayer's bonded valence
  FA   - Mayer's free valence

  ATOM       NA         ZA         QA         VA         BVA        FA
  0 C      5.8180     6.0000     0.1820     3.8647     3.8647    -0.0000
  1 O      8.3569     8.0000    -0.3569     2.0823     2.0823    -0.0000
  2 C      6.1613     6.0000    -0.1613     3.9742     3.9742    -0.0000
  3 C      6.2255     6.0000    -0.2255     3.9493     3.9493    -0.0000
  4 H      0.8707     1.0000     0.1293     0.9833     0.9833    -0.0000
  5 H      0.8596     1.0000     0.1404     0.9803     0.9803    -0.0000
  6 H      0.8533     1.0000     0.1467     0.9785     0.9785    -0.0000
  7 H      0.8547     1.0000     0.1453     0.9789     0.9789    -0.0000

  Mayer bond orders larger than 0.100000
B(  0-C ,  1-O ) :   1.9218 B(  0-C ,  2-C ) :   1.0106 B(  0-C ,  4-H ) :   0.9125 
B(  2-C ,  3-C ) :   1.9534 B(  2-C ,  5-H ) :   0.9574 B(  3-C ,  6-H ) :   0.9666 
B(  3-C ,  7-H ) :   0.9616 

-------
TIMINGS
-------

Total SCF time: 0 days 0 hours 0 min 3 sec 

Total time                  ....       3.572 sec
Sum of individual times     ....       0.446 sec  ( 12.5%)

Fock matrix formation       ....       0.097 sec  (  2.7%)
Diagonalization             ....       0.001 sec  (  0.0%)
Density matrix formation    ....       0.000 sec  (  0.0%)
Population analysis         ....       0.342 sec  (  9.6%)
Initial guess               ....       0.002 sec  (  0.1%)
Orbital Transformation      ....       0.000 sec  (  0.0%)
Orbital Orthonormalization  ....       0.000 sec  (  0.0%)
DIIS solution               ....       0.001 sec  (  0.0%)
SOSCF solution              ....       0.003 sec  (  0.1%)

Maximum memory used throughout the entire SCF-calculation: 225.0 MB
------------------------------------------------------------------------------
                         ORCA CIS CALCULATION
------------------------------------------------------------------------------

Input orbitals are from        ... acrolien.326.gbw
CI-vector output               ... acrolien.326.cis
Tamm-Dancoff approximation     ... operative
CIS-Integral strategy          ... AO-integrals
Integral handling              ... AO integral Conventional
Reference state                ... RHF
Generation of triplets         ... off
Follow IRoot                   ... off
Number of operators            ... 1
Orbital ranges used for CIS calculation:
 Operator 0:  Orbitals   4... 14  to  15... 23
XAS localization array:
 Operator 0:  Orbitals  -1... -1

------------------------
DAVIDSON-DIAGONALIZATION
------------------------

Dimension of the eigenvalue problem            ...     99
Number of roots to be determined               ...      1
Maximum size of the expansion space            ...     10
Maximum number of iterations                   ...    100
Convergence tolerance for the residual         ...    2.500e-07
Convergence tolerance for the energies         ...    2.500e-07
Orthogonality tolerance                        ...    1.000e-14
Level Shift                                    ...    0.000e+00
Constructing the preconditioner                ... o.k.
Building the initial guess                     ... o.k.
Number of trial vectors determined             ...     10


                       ****Iteration    0****

   Memory handling for direct AO based CIS:
   Memory per vector needed      ...     1 MB
   Memory needed                 ...     0 MB
   Memory available              ...   512 MB
   Number of vectors per batch   ...   512
   Number of batches             ...     1
   Time for densities:            0.000
   SHARK[4]
   Time for Sigma-Completion:     0.000
   Size of expansion space: 3
   Lowest Energy          :     0.216059098104
   Maximum Energy change  :     0.216059098104 (vector 0)
   Maximum residual norm  :     0.014405558832

                       ****Iteration    1****
   Time for densities:            0.000
   SHARK[4]
   Time for Sigma-Completion:     0.000
   Size of expansion space: 4
   Lowest Energy          :     0.161337001492
   Maximum Energy change  :     0.054722096611 (vector 0)
   Maximum residual norm  :     0.001791627854

                       ****Iteration    2****
   Time for densities:            0.000
   SHARK[4]
   Time for Sigma-Completion:     0.000
   Size of expansion space: 5
   Lowest Energy          :     0.156530342683
   Maximum Energy change  :     0.004806658809 (vector 0)
   Maximum residual norm  :     0.000161178831

                       ****Iteration    3****
   Time for densities:            0.000
   SHARK[4]
   Time for Sigma-Completion:     0.000
   Size of expansion space: 6
   Lowest Energy          :     0.156248109548
   Maximum Energy change  :     0.000282233135 (vector 0)
   Maximum residual norm  :     0.000021155049

                       ****Iteration    4****
   Time for densities:            0.000
   SHARK[4]
   Time for Sigma-Completion:     0.000
   Size of expansion space: 7
   Lowest Energy          :     0.156214371178
   Maximum Energy change  :     0.000033738371 (vector 0)
   Maximum residual norm  :     0.000001835858

                       ****Iteration    5****
   Time for densities:            0.000
   SHARK[4]
   Time for Sigma-Completion:     0.000
   Size of expansion space: 8
   Lowest Energy          :     0.156211724316
   Maximum Energy change  :     0.000002646862 (vector 0)
   Maximum residual norm  :     0.000000125873

      *** CONVERGENCE OF RESIDUAL NORM REACHED ***

Storing the converged CI vectors               ... acrolien.326.cis1

                 *** DAVIDSON DONE ***

Total time for solving the CIS problem:     2.055sec

-----------------------------
CIS-EXCITED STATES (SINGLETS)
-----------------------------

the weight of the individual excitations are printed if larger than 1.0e-02

STATE  1:  E=   0.156212 au      4.251 eV    34284.5 cm**-1 <S**2> =   0.000000
     8a ->  15a  :     0.011282 (c=  0.10621797)
    12a ->  15a  :     0.010153 (c=  0.10076134)
    13a ->  15a  :     0.699003 (c= -0.83606399)
    13a ->  16a  :     0.156294 (c=  0.39534033)
    14a ->  15a  :     0.063464 (c=  0.25192125)
    14a ->  16a  :     0.013706 (c= -0.11707452)


----------------------
CIS-EXCITATION SPECTRA
----------------------

Center of mass = ( -0.6688, -0.7922,  0.0790)
Calculating the Dipole integrals                  ... done
Transforming integrals                            ... done
Calculating the Linear Momentum integrals         ... done
Transforming integrals                            ... done
Calculating angular momentum integrals            ... done
Transforming integrals                            ... done

-----------------------------------------------------------------------------
         ABSORPTION SPECTRUM VIA TRANSITION ELECTRIC DIPOLE MOMENTS
-----------------------------------------------------------------------------
State   Energy    Wavelength  fosc         T2        TX        TY        TZ  
        (cm-1)      (nm)                 (au**2)    (au)      (au)      (au) 
-----------------------------------------------------------------------------
   1   34284.5    291.7   0.000027995   0.00027  -0.01519  -0.00205  -0.00581

-----------------------------------------------------------------------------
         ABSORPTION SPECTRUM VIA TRANSITION VELOCITY DIPOLE MOMENTS
-----------------------------------------------------------------------------
State   Energy    Wavelength   fosc        P2         PX        PY        PZ  
        (cm-1)      (nm)                 (au**2)     (au)      (au)      (au) 
-----------------------------------------------------------------------------
   1   34284.5    291.7   0.000735319   0.00017   0.00441  -0.00109  -0.01232

-------------------------------------------------------------------
                             CD SPECTRUM
-------------------------------------------------------------------
State  Energy     Wavelength     R         MX        MY        MZ   
       (cm-1)       (nm)     (1e40*cgs)   (au)      (au)      (au)  
-------------------------------------------------------------------
   1   34284.5    291.7     -0.66755   0.06429   0.46574  -0.08878

-------------------------------------------------------------------
         CD SPECTRUM VIA TRANSITION VELOCITY DIPOLE MOMENTS        
-------------------------------------------------------------------
State  Energy     Wavelength     R         MX        MY        MZ   
       (cm-1)       (nm)     (1e40*cgs)   (au)      (au)      (au)  
-------------------------------------------------------------------
   1   34284.5    291.7      2.62773   0.06429   0.46574  -0.08878

Total run time:        2.857 sec

           *** ORCA-CIS/TD-DFT FINISHED WITHOUT ERROR ***

Maximum memory used throughout the entire CIS-calculation: 51.7 MB

-----------------------
CIS/TD-DFT TOTAL ENERGY
-----------------------

    E(SCF)  =   -189.389459094 Eh
    DE(CIS) =      0.156211724 Eh (Root  1)
    ----------------------------- ---------
    E(tot)  =   -189.233247369 Eh



-------------------------------------------------------------------------------
                          DFT DISPERSION CORRECTION                            
                                                                               
                              DFTD3 V3.1  Rev 1                                
                          USING Becke-Johnson damping                          
-------------------------------------------------------------------------------
Hartree-Fock is recognized
Active option DFTDOPT                   ...         4   

molecular C6(AA) [au] = 661.959835 


            DFT-D V3
 parameters
 using HF/MINIX parameters
 s6 scaling factor         :     1.0000 
 a1 scaling factor         :     0.4171 
 s8 scaling factor         :     0.8777 
 a2 scaling factor         :     2.9149 
 ad hoc parameters k1-k3   :    16.0000     1.3333    -4.0000 

 Edisp/kcal,au: -15.756971992111  -0.025110330541 
 E6   /kcal   :  -8.727750764 
 E8   /kcal   :  -7.029221228 
 % E8         :  44.610228613 

-------------------------   ----------------
Dispersion correction           -0.025110331
-------------------------   ----------------

------------------   -----------------
gCP+bas correction        -0.055727665
------------------   -----------------
----------------------------   ----------------
Total correction to HF/MINIX       -0.080837995
----------------------------   ----------------


-------------------------   --------------------
FINAL SINGLE POINT ENERGY      -189.314085364316
-------------------------   --------------------


                            ***************************************
                            *     ORCA property calculations      *
                            ***************************************

                                    ---------------------
                                    Active property flags
                                    ---------------------
   (+) Dipole Moment


------------------------------------------------------------------------------
                       ORCA ELECTRIC PROPERTIES CALCULATION
------------------------------------------------------------------------------

Dipole Moment Calculation                       ... on
Quadrupole Moment Calculation                   ... off
Polarizability Calculation                      ... off
GBWName                                         ... acrolien.326.gbw
Electron density                                ... acrolien.326.scfp
The origin for moment calculation is the CENTER OF MASS  = (-0.668793, -0.792156  0.079023)

-------------
DIPOLE MOMENT
-------------
                                X             Y             Z
Electronic contribution:     -2.18045      -2.01836       0.18404
Nuclear contribution   :      2.51090       3.03952      -0.33599
                        -----------------------------------------
Total Dipole Moment    :      0.33045       1.02116      -0.15194
                        -----------------------------------------
Magnitude (a.u.)       :      1.08400
Magnitude (Debye)      :      2.75531



--------------------
Rotational spectrum 
--------------------
 
Rotational constants in cm-1:     0.805055     0.195412     0.158494 
Rotational constants in MHz : 24134.934245  5858.301199  4751.517353 

 Dipole components along the rotational axes: 
x,y,z [a.u.] :     0.810035    -0.710878    -0.116414 
x,y,z [Debye]:     2.058946    -1.806907    -0.295900 

 

Timings for individual modules:

Sum of individual times         ...        9.676 sec (=   0.161 min)
GTO integral calculation        ...        3.077 sec (=   0.051 min)  31.8 %
SCF iterations                  ...        3.580 sec (=   0.060 min)  37.0 %
CIS module                      ...        3.019 sec (=   0.050 min)  31.2 %
                             ****ORCA TERMINATED NORMALLY****
TOTAL RUN TIME: 0 days 0 hours 0 minutes 10 seconds 989 msec
