
                                 *****************
                                 * O   R   C   A *
                                 *****************

                                            #,                                       
                                            ###                                      
                                            ####                                     
                                            #####                                    
                                            ######                                   
                                           ########,                                 
                                     ,,################,,,,,                         
                               ,,#################################,,                 
                          ,,##########################################,,             
                       ,#########################################, ''#####,          
                    ,#############################################,,   '####,        
                  ,##################################################,,,,####,       
                ,###########''''           ''''###############################       
              ,#####''   ,,,,##########,,,,          '''####'''          '####       
            ,##' ,,,,###########################,,,                        '##       
           ' ,,###''''                  '''############,,,                           
         ,,##''                                '''############,,,,        ,,,,,,###''
      ,#''                                            '''#######################'''  
     '                                                          ''''####''''         
             ,#######,   #######,   ,#######,      ##                                
            ,#'     '#,  ##    ##  ,#'     '#,    #''#        ######   ,####,        
            ##       ##  ##   ,#'  ##            #'  '#       #        #'  '#        
            ##       ##  #######   ##           ,######,      #####,   #    #        
            '#,     ,#'  ##    ##  '#,     ,#' ,#      #,         ##   #,  ,#        
             '#######'   ##     ##  '#######'  #'      '#     #####' # '####'        



                  #######################################################
                  #                        -***-                        #
                  #          Department of theory and spectroscopy      #
                  #    Directorship and core code : Frank Neese         #
                  #        Max Planck Institute fuer Kohlenforschung    #
                  #                Kaiser Wilhelm Platz 1               #
                  #                 D-45470 Muelheim/Ruhr               #
                  #                      Germany                        #
                  #                                                     #
                  #                  All rights reserved                #
                  #                        -***-                        #
                  #######################################################


                         Program Version 5.0.3 -  RELEASE  -


 With contributions from (in alphabetic order):
   Daniel Aravena         : Magnetic Suceptibility
   Michael Atanasov       : Ab Initio Ligand Field Theory (pilot matlab implementation)
   Alexander A. Auer      : GIAO ZORA, VPT2 properties, NMR spectrum
   Ute Becker             : Parallelization
   Giovanni Bistoni       : ED, misc. LED, open-shell LED, HFLD
   Martin Brehm           : Molecular dynamics
   Dmytro Bykov           : SCF Hessian
   Vijay G. Chilkuri      : MRCI spin determinant printing, contributions to CSF-ICE
   Dipayan Datta          : RHF DLPNO-CCSD density
   Achintya Kumar Dutta   : EOM-CC, STEOM-CC
   Dmitry Ganyushin       : Spin-Orbit,Spin-Spin,Magnetic field MRCI
   Miquel Garcia          : C-PCM and meta-GGA Hessian, CC/C-PCM, Gaussian charge scheme
   Yang Guo               : DLPNO-NEVPT2, F12-NEVPT2, CIM, IAO-localization
   Andreas Hansen         : Spin unrestricted coupled pair/coupled cluster methods
   Benjamin Helmich-Paris : MC-RPA, TRAH-SCF, COSX integrals
   Lee Huntington         : MR-EOM, pCC
   Robert Izsak           : Overlap fitted RIJCOSX, COSX-SCS-MP3, EOM
   Marcus Kettner         : VPT2
   Christian Kollmar      : KDIIS, OOCD, Brueckner-CCSD(T), CCSD density, CASPT2, CASPT2-K
   Simone Kossmann        : Meta GGA functionals, TD-DFT gradient, OOMP2, MP2 Hessian
   Martin Krupicka        : Initial AUTO-CI
   Lucas Lang             : DCDCAS
   Marvin Lechner         : AUTO-CI (C++ implementation), FIC-MRCC
   Dagmar Lenk            : GEPOL surface, SMD
   Dimitrios Liakos       : Extrapolation schemes; Compound Job, initial MDCI parallelization
   Dimitrios Manganas     : Further ROCIS development; embedding schemes
   Dimitrios Pantazis     : SARC Basis sets
   Anastasios Papadopoulos: AUTO-CI, single reference methods and gradients
   Taras Petrenko         : DFT Hessian,TD-DFT gradient, ASA, ECA, R-Raman, ABS, FL, XAS/XES, NRVS
   Peter Pinski           : DLPNO-MP2, DLPNO-MP2 Gradient
   Christoph Reimann      : Effective Core Potentials
   Marius Retegan         : Local ZFS, SOC
   Christoph Riplinger    : Optimizer, TS searches, QM/MM, DLPNO-CCSD(T), (RO)-DLPNO pert. Triples
   Tobias Risthaus        : Range-separated hybrids, TD-DFT gradient, RPA, STAB
   Michael Roemelt        : Original ROCIS implementation
   Masaaki Saitow         : Open-shell DLPNO-CCSD energy and density
   Barbara Sandhoefer     : DKH picture change effects
   Avijit Sen             : IP-ROCIS
   Kantharuban Sivalingam : CASSCF convergence, NEVPT2, FIC-MRCI
   Bernardo de Souza      : ESD, SOC TD-DFT
   Georgi Stoychev        : AutoAux, RI-MP2 NMR, DLPNO-MP2 response
   Willem Van den Heuvel  : Paramagnetic NMR
   Boris Wezisla          : Elementary symmetry handling
   Frank Wennmohs         : Technical directorship


 We gratefully acknowledge several colleagues who have allowed us to
 interface, adapt or use parts of their codes:
   Stefan Grimme, W. Hujo, H. Kruse, P. Pracht,  : VdW corrections, initial TS optimization,
                  C. Bannwarth, S. Ehlert          DFT functionals, gCP, sTDA/sTD-DF
   Ed Valeev, F. Pavosevic, A. Kumar             : LibInt (2-el integral package), F12 methods
   Garnet Chan, S. Sharma, J. Yang, R. Olivares  : DMRG
   Ulf Ekstrom                                   : XCFun DFT Library
   Mihaly Kallay                                 : mrcc  (arbitrary order and MRCC methods)
   Jiri Pittner, Ondrej Demel                    : Mk-CCSD
   Frank Weinhold                                : gennbo (NPA and NBO analysis)
   Christopher J. Cramer and Donald G. Truhlar   : smd solvation model
   Lars Goerigk                                  : TD-DFT with DH, B97 family of functionals
   V. Asgeirsson, H. Jonsson                     : NEB implementation
   FAccTs GmbH                                   : IRC, NEB, NEB-TS, DLPNO-Multilevel, CI-OPT
                                                   MM, QMMM, 2- and 3-layer-ONIOM, Crystal-QMMM,
                                                   LR-CPCM, SF, NACMEs, symmetry and pop. for TD-DFT,
                                                   nearIR, NL-DFT gradient (VV10), updates on ESD,
                                                   ML-optimized integration grids
   S Lehtola, MJT Oliveira, MAL Marques          : LibXC Library
   Liviu Ungur et al                             : ANISO software


 Your calculation uses the libint2 library for the computation of 2-el integrals
 For citations please refer to: http://libint.valeyev.net

 Your ORCA version has been built with support for libXC version: 5.1.0
 For citations please refer to: https://tddft.org/programs/libxc/

 This ORCA versions uses:
   CBLAS   interface :  Fast vector & matrix operations
   LAPACKE interface :  Fast linear algebra routines
   SCALAPACK package :  Parallel linear algebra routines
   Shared memory     :  Shared parallel matrices
   BLAS/LAPACK       :  OpenBLAS 0.3.15  USE64BITINT DYNAMIC_ARCH NO_AFFINITY Haswell SINGLE_THREADED
        Core in use  :  Haswell
   Copyright (c) 2011-2014, The OpenBLAS Project


================================================================================

----- Orbital basis set information -----
Your calculation utilizes the basis: cc-pVDZ 
       H, B-Ne : Obtained from the ccRepo (grant-hill.group.shef.ac.uk/ccrepo) Feb. 2017
                 T. H. Dunning, Jr., J. Chem. Phys. 90, 1007 (1989)
            He : Obtained from the ccRepo (grant-hill.group.shef.ac.uk/ccrepo) Feb. 2017
                 D. E. Woon, T. H. Dunning, Jr., J. Chem. Phys. 100, 2975 (1994)
  Li-Be, Na-Mg : Obtained from the ccRepo (grant-hill.group.shef.ac.uk/ccrepo) Feb. 2017
                 B. P. Prascher, D. E. Woon, K. A. Peterson, T. H. Dunning, Jr., A. K. Wilson, Theor. Chem. Acc. 128, 69 (2011)
         Al-Ar : Obtained from the ccRepo (grant-hill.group.shef.ac.uk/ccrepo) Feb. 2017
                 D. E. Woon, T. H. Dunning, Jr., J. Chem. Phys. 98, 1358 (1993)
            Ca : Obtained from the Peterson Research Group Website (tyr0.chem.wsu.edu/~kipeters) Feb. 2017
                 J. Koput, K. A. Peterson, J. Phys. Chem. 106, 9595 (2002)
         Sc-Zn : Obtained from the ccRepo (grant-hill.group.shef.ac.uk/ccrepo) Feb. 2017
                 N. B. Balabanov, K. A. Peterson, J. Chem. Phys. 123, 064107 (2005)
                 N. B. Balabanov, K. A. Peterson, J. Chem. Phys. 125, 074110 (2006)
         Ga-Kr : Obtained from the ccRepo (grant-hill.group.shef.ac.uk/ccrepo) Feb. 2017
                 A. K. Wilson, D. E. Woon, K. A. Peterson, T. H. Dunning, Jr., J. Chem. Phys. 110, 7667 (1999)

----- AuxJ basis set information -----
Your calculation utilizes the auxiliary basis: def2/J
   F. Weigend, Phys. Chem. Chem. Phys. 8, 1057 (2006).

================================================================================
                                        WARNINGS
                       Please study these warnings very carefully!
================================================================================

INFO   : Checking CIS options ...

INFO   : the flag for use of the SHARK integral package has been found!

================================================================================
                                       INPUT FILE
================================================================================
NAME = acrolien.155.com
|  1> ! B3LYP cc-pVDZ
|  2> !TightSCF
|  3> %scf
|  4>  ConvForced true
|  5>  convergence tight
|  6>  MaxIter 500
|  7> end
|  8>  
|  9> %tddft 
| 10>  nroots 1
| 11> end
| 12> 
| 13> # 	29043
| 14> * xyz 0 1
| 15> 		C   -0.616686  -0.408379   0.022458
| 16> 		O   -0.546285  -1.619277  -0.008055
| 17> 		C    0.596159   0.419201  -0.015237
| 18> 		C    1.867868  -0.174282   0.014942
| 19> 		H   -1.535477   0.032309  -0.136618
| 20> 		H    0.476313   1.651896   0.133225
| 21> 		H    2.125742  -1.178129   0.083007
| 22> 		H    2.551932   0.427213  -0.221461
| 23> *
| 24> 
| 25>                          ****END OF INPUT****
================================================================================

                       ****************************
                       * Single Point Calculation *
                       ****************************

---------------------------------
CARTESIAN COORDINATES (ANGSTROEM)
---------------------------------
  C     -0.616686   -0.408379    0.022458
  O     -0.546285   -1.619277   -0.008055
  C      0.596159    0.419201   -0.015237
  C      1.867868   -0.174282    0.014942
  H     -1.535477    0.032309   -0.136618
  H      0.476313    1.651896    0.133225
  H      2.125742   -1.178129    0.083007
  H      2.551932    0.427213   -0.221461

----------------------------
CARTESIAN COORDINATES (A.U.)
----------------------------
  NO LB      ZA    FRAG     MASS         X           Y           Z
   0 C     6.0000    0    12.011   -1.165368   -0.771724    0.042439
   1 O     8.0000    0    15.999   -1.032329   -3.059990   -0.015222
   2 C     6.0000    0    12.011    1.126577    0.792175   -0.028794
   3 C     6.0000    0    12.011    3.529759   -0.329345    0.028236
   4 H     1.0000    0     1.008   -2.901631    0.061055   -0.258171
   5 H     1.0000    0     1.008    0.900101    3.121631    0.251759
   6 H     1.0000    0     1.008    4.017070   -2.226341    0.156860
   7 H     1.0000    0     1.008    4.822453    0.807316   -0.418501

--------------------------------
INTERNAL COORDINATES (ANGSTROEM)
--------------------------------
 C      0   0   0     0.000000000000     0.00000000     0.00000000
 O      1   0   0     1.213326547296     0.00000000     0.00000000
 C      1   2   0     1.468775872436   120.91480017     0.00000000
 C      3   1   2     1.403701045099   120.61910387   355.13517375
 H      1   2   3     1.031352504627   118.31038114   166.53865680
 H      3   1   2     1.247373637763   118.32202330   186.01215020
 H      4   3   1     1.038672539114   129.41693291   358.58763218
 H      4   3   1     0.941077132615   112.51396881   166.12476792

---------------------------
INTERNAL COORDINATES (A.U.)
---------------------------
 C      0   0   0     0.000000000000     0.00000000     0.00000000
 O      1   0   0     2.292854885406     0.00000000     0.00000000
 C      1   2   0     2.775584151015   120.91480017     0.00000000
 C      3   1   2     2.652610549135   120.61910387   355.13517375
 H      1   2   3     1.948973781279   118.31038114   166.53865680
 H      3   1   2     2.357194562044   118.32202330   186.01215020
 H      4   3   1     1.962806641751   129.41693291   358.58763218
 H      4   3   1     1.778378051537   112.51396881   166.12476792

---------------------
BASIS SET INFORMATION
---------------------
There are 3 groups of distinct atoms

 Group   1 Type C   : 17s4p1d contracted to 3s2p1d pattern {881/31/1}
 Group   2 Type O   : 17s4p1d contracted to 3s2p1d pattern {881/31/1}
 Group   3 Type H   : 4s1p contracted to 2s1p pattern {31/1}

Atom   0C    basis set group =>   1
Atom   1O    basis set group =>   2
Atom   2C    basis set group =>   1
Atom   3C    basis set group =>   1
Atom   4H    basis set group =>   3
Atom   5H    basis set group =>   3
Atom   6H    basis set group =>   3
Atom   7H    basis set group =>   3
---------------------------------
AUXILIARY/J BASIS SET INFORMATION
---------------------------------
There are 3 groups of distinct atoms

 Group   1 Type C   : 12s5p4d2f1g contracted to 6s4p3d1f1g pattern {711111/2111/211/2/1}
 Group   2 Type O   : 12s5p4d2f1g contracted to 6s4p3d1f1g pattern {711111/2111/211/2/1}
 Group   3 Type H   : 5s2p1d contracted to 3s1p1d pattern {311/2/1}

Atom   0C    basis set group =>   1
Atom   1O    basis set group =>   2
Atom   2C    basis set group =>   1
Atom   3C    basis set group =>   1
Atom   4H    basis set group =>   3
Atom   5H    basis set group =>   3
Atom   6H    basis set group =>   3
Atom   7H    basis set group =>   3
------------------------------------------------------------------------------
                           ORCA GTO INTEGRAL CALCULATION
                           -- RI-GTO INTEGRALS CHOSEN --
------------------------------------------------------------------------------
------------------------------------------------------------------------------
                   ___                                                        
                  /   \      - P O W E R E D   B Y -                         
                 /     \                                                     
                 |  |  |   _    _      __       _____    __    __             
                 |  |  |  | |  | |    /  \     |  _  \  |  |  /  |          
                  \  \/   | |  | |   /    \    | | | |  |  | /  /          
                 / \  \   | |__| |  /  /\  \   | |_| |  |  |/  /          
                |  |  |   |  __  | /  /__\  \  |    /   |      \           
                |  |  |   | |  | | |   __   |  |    \   |  |\   \          
                \     /   | |  | | |  |  |  |  | |\  \  |  | \   \       
                 \___/    |_|  |_| |__|  |__|  |_| \__\ |__|  \__/        
                                                                              
                      - O R C A' S   B I G   F R I E N D -                    
                                      &                                       
                       - I N T E G R A L  F E E D E R -                       
                                                                              
 v1 FN, 2020, v2 2021                                                         
------------------------------------------------------------------------------


Reading SHARK input file acrolien.155.SHARKINP.tmp ... ok
----------------------
SHARK INTEGRAL PACKAGE
----------------------

Number of atoms                             ...      8
Number of basis functions                   ...    100
Number of shells                            ...     60
Maximum angular momentum                    ...      2
Integral batch strategy                     ... SHARK/LIBINT Hybrid
RI-J (if used) integral strategy            ... SPLIT-RIJ (Revised 2003 algorithm where possible)
Printlevel                                  ...      1
Contraction scheme used                     ... PARTIAL GENERAL contraction
Coulomb Range Separation                    ... NOT USED
Exchange Range Separation                   ... NOT USED
Finite Nucleus Model                        ... NOT USED
Auxiliary Coulomb fitting basis             ... AVAILABLE
   # of basis functions in Aux-J            ...    240
   # of shells in Aux-J                     ...     80
   Maximum angular momentum in Aux-J        ...      4
Auxiliary J/K fitting basis                 ... NOT available
Auxiliary Correlation fitting basis         ... NOT available
Auxiliary 'external' fitting basis          ... NOT available
Integral threshold                          ...     2.500000e-11
Primitive cut-off                           ...     2.500000e-12
Primitive pair pre-selection threshold      ...     2.500000e-12

Calculating pre-screening integrals         ... done (  0.0 sec) Dimension = 60
Calculating pre-screening integrals (ORCA)  ... done (  0.3 sec) Dimension = 36
Organizing shell pair data                  ... done (  0.3 sec)
Shell pair information
Total number of shell pairs                 ...      1830
Shell pairs after pre-screening             ...      1538
Total number of primitive shell pairs       ...      2950
Primitive shell pairs kept                  ...      2286
          la=0 lb=0:    730 shell pairs
          la=1 lb=0:    501 shell pairs
          la=1 lb=1:     78 shell pairs
          la=2 lb=0:    171 shell pairs
          la=2 lb=1:     48 shell pairs
          la=2 lb=2:     10 shell pairs

Calculating one electron integrals          ... done (  0.0 sec)
Calculating RI/J V-Matrix + Cholesky decomp.... done (  1.7 sec)
Calculating Nuclear repulsion               ... done (  0.3 sec) ENN=    104.616511858026 Eh

SHARK setup successfully completed in   7.0 seconds

Maximum memory used throughout the entire GTOINT-calculation: 14.2 MB
-------------------------------------------------------------------------------
                                 ORCA SCF
-------------------------------------------------------------------------------

------------
SCF SETTINGS
------------
Hamiltonian:
 Density Functional     Method          .... DFT(GTOs)
 Exchange Functional    Exchange        .... B88
   X-Alpha parameter    XAlpha          ....  0.666667
   Becke's b parameter  XBeta           ....  0.004200
 Correlation Functional Correlation     .... LYP
 LDA part of GGA corr.  LDAOpt          .... VWN-5
 Gradients option       PostSCFGGA      .... off
 Hybrid DFT is turned on
   Fraction HF Exchange ScalHFX         ....  0.200000
   Scaling of DF-GGA-X  ScalDFX         ....  0.720000
   Scaling of DF-GGA-C  ScalDFC         ....  0.810000
   Scaling of DF-LDA-C  ScalLDAC        ....  1.000000
   Perturbative correction              ....  0.000000
   Density functional embedding theory  .... OFF
   NL short-range parameter             ....  4.800000
 RI-approximation to the Coulomb term is turned on
   Number of AuxJ basis functions       .... 240
   RIJ-COSX (HFX calculated with COS-X)).... on


General Settings:
 Integral files         IntName         .... acrolien.155
 Hartree-Fock type      HFTyp           .... RHF
 Total Charge           Charge          ....    0
 Multiplicity           Mult            ....    1
 Number of Electrons    NEL             ....   30
 Basis Dimension        Dim             ....   76
 Nuclear Repulsion      ENuc            ....    104.6165118580 Eh

Convergence Acceleration:
 DIIS                   CNVDIIS         .... on
   Start iteration      DIISMaxIt       ....    12
   Startup error        DIISStart       ....  0.200000
   # of expansion vecs  DIISMaxEq       ....     5
   Bias factor          DIISBfac        ....   1.050
   Max. coefficient     DIISMaxC        ....  10.000
 Trust-Rad. Augm. Hess. CNVTRAH         .... auto
   Auto Start mean grad. ratio tolernc. ....  1.125000
   Auto Start start iteration           ....    20
   Auto Start num. interpolation iter.  ....    10
   Max. Number of Micro iterations      ....    16
   Max. Number of Macro iterations      .... Maxiter - #DIIS iter
   Number of Davidson start vectors     ....     2
   Converg. threshold I  (grad. norm)   ....   1.000e-05
   Converg. threshold II (energy diff.) ....   1.000e-08
   Grad. Scal. Fac. for Micro threshold ....   0.100
   Minimum threshold for Micro iter.    ....   0.010
   NR start threshold (gradient norm)   ....   0.001
   Initial trust radius                 ....   0.400
   Minimum AH scaling param. (alpha)    ....   1.000
   Maximum AH scaling param. (alpha)    .... 1000.000
   Orbital update algorithm             .... Taylor
   White noise on init. David. guess    .... on
   Maximum white noise                  ....   0.010
   Quad. conv. algorithm                .... NR
 SOSCF                  CNVSOSCF        .... on
   Start iteration      SOSCFMaxIt      ....   150
   Startup grad/error   SOSCFStart      ....  0.003300
 Level Shifting         CNVShift        .... on
   Level shift para.    LevelShift      ....    0.2500
   Turn off err/grad.   ShiftErr        ....    0.0010
 Zerner damping         CNVZerner       .... off
 Static damping         CNVDamp         .... on
   Fraction old density DampFac         ....    0.7000
   Max. Damping (<1)    DampMax         ....    0.9800
   Min. Damping (>=0)   DampMin         ....    0.0000
   Turn off err/grad.   DampErr         ....    0.1000
 Fernandez-Rico         CNVRico         .... off

SCF Procedure:
 Maximum # iterations   MaxIter         ....   500
 SCF integral mode      SCFMode         .... Direct
   Integral package                     .... SHARK and LIBINT hybrid scheme
 Reset frequency        DirectResetFreq ....    20
 Integral Threshold     Thresh          ....  2.500e-11 Eh
 Primitive CutOff       TCut            ....  2.500e-12 Eh

Convergence Tolerance:
 Convergence Check Mode ConvCheckMode   .... Total+1el-Energy
 Convergence forced     ConvForced      .... 1
 Energy Change          TolE            ....  1.000e-08 Eh
 1-El. energy change                    ....  1.000e-05 Eh
 Orbital Gradient       TolG            ....  1.000e-05
 Orbital Rotation angle TolX            ....  1.000e-05
 DIIS Error             TolErr          ....  5.000e-07


Diagonalization of the overlap matrix:
Smallest eigenvalue                        ... 3.522e-03
Time for diagonalization                   ...    0.002 sec
Threshold for overlap eigenvalues          ... 1.000e-08
Number of eigenvalues below threshold      ... 0
Time for construction of square roots      ...    1.127 sec
Total time needed                          ...    1.129 sec

Time for model grid setup =    0.617 sec

------------------------------
INITIAL GUESS: MODEL POTENTIAL
------------------------------
Loading Hartree-Fock densities                     ... done
Calculating cut-offs                               ... done
Initializing the effective Hamiltonian             ... done
Setting up the integral package (SHARK)            ... done
Starting the Coulomb interaction                   ... done (   2.7 sec)
Reading the grid                                   ... done
Mapping shells                                     ... done
Starting the XC term evaluation                    ... done (   0.1 sec)
  promolecular density results
     # of electrons  =     29.999217897
     EX              =    -24.748933070
     EC              =     -0.996137883
     EX+EC           =    -25.745070953
Transforming the Hamiltonian                       ... done (   0.0 sec)
Diagonalizing the Hamiltonian                      ... done (   0.0 sec)
Back transforming the eigenvectors                 ... done (   0.0 sec)
Now organizing SCF variables                       ... done
                      ------------------
                      INITIAL GUESS DONE (   4.5 sec)
                      ------------------
-------------------
DFT GRID GENERATION
-------------------

General Integration Accuracy     IntAcc      ... 4.388
Radial Grid Type                 RadialGrid  ... OptM3 with GC (2021)
Angular Grid (max. ang.)         AngularGrid ... 4 (Lebedev-302)
Angular grid pruning method      GridPruning ... 4 (adaptive)
Weight generation scheme         WeightScheme... Becke
Basis function cutoff            BFCut       ... 1.0000e-11
Integration weight cutoff        WCut        ... 1.0000e-14
Angular grids for H and He will be reduced by one unit
Partially contracted basis set               ... off
Rotationally invariant grid construction     ... off

Total number of grid points                  ...    37371
Total number of batches                      ...      588
Average number of points per batch           ...       63
Average number of grid points per atom       ...     4671
Time for grid setup =    0.277 sec

--------------------
COSX GRID GENERATION
--------------------

GRIDX 1
-------
General Integration Accuracy     IntAcc      ... 3.816
Radial Grid Type                 RadialGrid  ... OptM3 with GC (2021)
Angular Grid (max. ang.)         AngularGrid ... 1 (Lebedev-50)
Angular grid pruning method      GridPruning ... 4 (adaptive)
Weight generation scheme         WeightScheme... Becke
Basis function cutoff            BFCut       ... 1.0000e-11
Integration weight cutoff        WCut        ... 1.0000e-14
Angular grids for H and He will be reduced by one unit
Partially contracted basis set               ... on
Rotationally invariant grid construction     ... off

Total number of grid points                  ...     4801
Total number of batches                      ...       79
Average number of points per batch           ...       60
Average number of grid points per atom       ...      600
UseSFitting                                  ... on

GRIDX 2
-------
General Integration Accuracy     IntAcc      ... 4.020
Radial Grid Type                 RadialGrid  ... OptM3 with GC (2021)
Angular Grid (max. ang.)         AngularGrid ... 2 (Lebedev-110)
Angular grid pruning method      GridPruning ... 4 (adaptive)
Weight generation scheme         WeightScheme... Becke
Basis function cutoff            BFCut       ... 1.0000e-11
Integration weight cutoff        WCut        ... 1.0000e-14
Angular grids for H and He will be reduced by one unit
Partially contracted basis set               ... on
Rotationally invariant grid construction     ... off

Total number of grid points                  ...    10553
Total number of batches                      ...      168
Average number of points per batch           ...       62
Average number of grid points per atom       ...     1319
UseSFitting                                  ... on

GRIDX 3
-------
General Integration Accuracy     IntAcc      ... 4.338
Radial Grid Type                 RadialGrid  ... OptM3 with GC (2021)
Angular Grid (max. ang.)         AngularGrid ... 3 (Lebedev-194)
Angular grid pruning method      GridPruning ... 4 (adaptive)
Weight generation scheme         WeightScheme... Becke
Basis function cutoff            BFCut       ... 1.0000e-11
Integration weight cutoff        WCut        ... 1.0000e-14
Angular grids for H and He will be reduced by one unit
Partially contracted basis set               ... on
Rotationally invariant grid construction     ... off

Total number of grid points                  ...    23279
Total number of batches                      ...      367
Average number of points per batch           ...       63
Average number of grid points per atom       ...     2910
UseSFitting                                  ... on

Time for X-Grid setup             =    6.882 sec

 re-compute Schwartz prescreening matrix in partically contracted basis (1) ...done (   1.775 sec)
--------------
SCF ITERATIONS
--------------
ITER       Energy         Delta-E        Max-DP      RMS-DP      [F,P]     Damp
               ***  Starting incremental Fock matrix formation  ***
  0   -191.6252678859   0.000000000000 0.11024359  0.00438765  0.2491423 0.7000
  1   -191.6894126642  -0.064144778351 0.06786934  0.00277976  0.0955965 0.7000
                               ***Turning on DIIS***
  2   -191.7109126267  -0.021499962459 0.06288333  0.00358844  0.0329074 0.0000
  3   -191.7500829092  -0.039170282547 0.05845980  0.00213891  0.0465360 0.0000
  4   -191.7564305047  -0.006347595435 0.01070149  0.00054833  0.0239119 0.0000
                      *** Initiating the SOSCF procedure ***
                           *** Shutting down DIIS ***
                      *** Re-Reading the Fockian *** 
                      *** Removing any level shift *** 
ITER      Energy       Delta-E        Grad      Rot      Max-DP    RMS-DP
  5   -191.75745927  -0.0010287610  0.000753  0.000753  0.003005  0.000162
               *** Restarting incremental Fock matrix formation ***
  6   -191.75748909  -0.0000298282  0.000605  0.003089  0.002516  0.000109
  7   -191.75748303   0.0000060647  0.001140  0.001786  0.001807  0.000072
  8   -191.75749316  -0.0000101338  0.000061  0.000148  0.000316  0.000018
  9   -191.75749311   0.0000000486  0.000078  0.000112  0.000154  0.000008
 10   -191.75749326  -0.0000001439  0.000023  0.000055  0.000121  0.000004
 11   -191.75749324   0.0000000142  0.000035  0.000037  0.000079  0.000003
                  ***Gradient check signals convergence***
              ***Rediagonalizing the Fockian in SOSCF/NRSCF***

               *****************************************************
               *                     SUCCESS                       *
               *           SCF CONVERGED AFTER  12 CYCLES          *
               *****************************************************

Old exchange energy                            =     -5.031463618 Eh
New exchange energy                            =     -5.031463788 Eh
Exchange energy change after final integration =     -0.000000169 Eh
Total energy after final integration           =   -191.757493436 Eh
Final COS-X integration done in                =     2.746 sec

----------------
TOTAL SCF ENERGY
----------------

Total Energy       :         -191.75749344 Eh           -5217.98667 eV

Components:
Nuclear Repulsion  :          104.61651186 Eh            2846.76001 eV
Electronic Energy  :         -296.37400529 Eh           -8064.74669 eV
One Electron Energy:         -466.43028837 Eh          -12692.21341 eV
Two Electron Energy:          170.05628307 Eh            4627.46672 eV
Max COSX asymmetry :            0.00000146 Eh               0.00004 eV

Virial components:
Potential Energy   :         -382.55397824 Eh          -10409.82297 eV
Kinetic Energy     :          190.79648481 Eh            5191.83630 eV
Virial Ratio       :            2.00503683


DFT components:
N(Alpha)           :       14.999997364252 electrons
N(Beta)            :       14.999997364252 electrons
N(Total)           :       29.999994728504 electrons
E(X)               :      -20.003497058444 Eh       
E(C)               :       -1.183999939772 Eh       
E(XC)              :      -21.187496998215 Eh       
DFET-embed. en.    :        0.000000000000 Eh       

---------------
SCF CONVERGENCE
---------------

  Last Energy change         ...   -2.2301e-08  Tolerance :   1.0000e-08
  Last MAX-Density change    ...    3.1086e-15  Tolerance :   1.0000e-07
  Last RMS-Density change    ...    8.0554e-17  Tolerance :   5.0000e-09
  Last Orbital Gradient      ...    1.5557e-06  Tolerance :   1.0000e-05
  Last Orbital Rotation      ...    2.9886e-06  Tolerance :   1.0000e-05

             **** THE GBW FILE WAS UPDATED (acrolien.155.gbw) ****
             **** DENSITY acrolien.155.scfp WAS UPDATED ****
             **** ENERGY FILE WAS UPDATED (acrolien.155.en.tmp) ****
             **** THE GBW FILE WAS UPDATED (acrolien.155.gbw) ****
             **** DENSITY acrolien.155.scfp WAS UPDATED ****
----------------
ORBITAL ENERGIES
----------------

  NO   OCC          E(Eh)            E(eV) 
   0   2.0000     -19.131219      -520.5869 
   1   2.0000     -10.263771      -279.2914 
   2   2.0000     -10.223307      -278.1903 
   3   2.0000     -10.203775      -277.6588 
   4   2.0000      -1.041492       -28.3404 
   5   2.0000      -0.784278       -21.3413 
   6   2.0000      -0.672043       -18.2872 
   7   2.0000      -0.558736       -15.2040 
   8   2.0000      -0.502095       -13.6627 
   9   2.0000      -0.444331       -12.0909 
  10   2.0000      -0.423031       -11.5113 
  11   2.0000      -0.399649       -10.8750 
  12   2.0000      -0.381213       -10.3733 
  13   2.0000      -0.275000        -7.4831 
  14   2.0000      -0.252421        -6.8687 
  15   0.0000      -0.079091        -2.1522 
  16   0.0000       0.045045         1.2257 
  17   0.0000       0.064216         1.7474 
  18   0.0000       0.104231         2.8363 
  19   0.0000       0.119810         3.2602 
  20   0.0000       0.157580         4.2880 
  21   0.0000       0.244741         6.6597 
  22   0.0000       0.275040         7.4842 
  23   0.0000       0.299610         8.1528 
  24   0.0000       0.437508        11.9052 
  25   0.0000       0.446325        12.1451 
  26   0.0000       0.459088        12.4924 
  27   0.0000       0.501724        13.6526 
  28   0.0000       0.516488        14.0544 
  29   0.0000       0.538607        14.6562 
  30   0.0000       0.567056        15.4304 
  31   0.0000       0.634837        17.2748 
  32   0.0000       0.649013        17.6605 
  33   0.0000       0.681444        18.5430 
  34   0.0000       0.696847        18.9622 
  35   0.0000       0.773245        21.0411 
  36   0.0000       0.784330        21.3427 
  37   0.0000       0.858497        23.3609 
  38   0.0000       0.881155        23.9774 
  39   0.0000       0.928388        25.2627 
  40   0.0000       0.941443        25.6180 
  41   0.0000       1.005160        27.3518 
  42   0.0000       1.030168        28.0323 
  43   0.0000       1.065743        29.0003 
  44   0.0000       1.088762        29.6267 
  45   0.0000       1.154505        31.4157 
  46   0.0000       1.180856        32.1327 
  47   0.0000       1.354139        36.8480 
  48   0.0000       1.436684        39.0942 
  49   0.0000       1.479363        40.2555 
  50   0.0000       1.527320        41.5605 
  51   0.0000       1.551786        42.2262 
  52   0.0000       1.568370        42.6775 
  53   0.0000       1.597295        43.4646 
  54   0.0000       1.645374        44.7729 
  55   0.0000       1.662859        45.2487 
  56   0.0000       1.741841        47.3979 
  57   0.0000       1.796665        48.8898 
  58   0.0000       1.811788        49.3013 
  59   0.0000       1.855701        50.4962 
  60   0.0000       1.893196        51.5165 
  61   0.0000       1.965173        53.4751 
  62   0.0000       2.003321        54.5131 
  63   0.0000       2.037791        55.4511 
  64   0.0000       2.106935        57.3326 
  65   0.0000       2.382981        64.8442 
  66   0.0000       2.391698        65.0814 
  67   0.0000       2.467304        67.1388 
  68   0.0000       2.580621        70.2223 
  69   0.0000       2.710499        73.7564 
  70   0.0000       2.827471        76.9394 
  71   0.0000       2.887584        78.5752 
  72   0.0000       3.005714        81.7896 
  73   0.0000       3.081202        83.8438 
  74   0.0000       3.440747        93.6275 
  75   0.0000       3.475143        94.5634 

                    ********************************
                    * MULLIKEN POPULATION ANALYSIS *
                    ********************************

-----------------------
MULLIKEN ATOMIC CHARGES
-----------------------
   0 C :    0.241360
   1 O :   -0.202245
   2 C :   -0.231466
   3 C :    0.195773
   4 H :   -0.038618
   5 H :    0.036651
   6 H :    0.023966
   7 H :   -0.025421
Sum of atomic charges:   -0.0000000

--------------------------------
MULLIKEN REDUCED ORBITAL CHARGES
--------------------------------
  0 C s       :     3.042921  s :     3.042921
      pz      :     0.785704  p :     2.570334
      px      :     0.915689
      py      :     0.868941
      dz2     :     0.004987  d :     0.145384
      dxz     :     0.005635
      dyz     :     0.028553
      dx2y2   :     0.036276
      dxy     :     0.069934
  1 O s       :     3.747883  s :     3.747883
      pz      :     1.263729  p :     4.435988
      px      :     1.800924
      py      :     1.371335
      dz2     :     0.002092  d :     0.018375
      dxz     :     0.000036
      dyz     :     0.005616
      dx2y2   :     0.006548
      dxy     :     0.004083
  2 C s       :     3.253347  s :     3.253347
      pz      :     0.989077  p :     2.922443
      px      :     0.997947
      py      :     0.935420
      dz2     :     0.003625  d :     0.055675
      dxz     :     0.007289
      dyz     :     0.003504
      dx2y2   :     0.022378
      dxy     :     0.018879
  3 C s       :     2.976621  s :     2.976621
      pz      :     0.877294  p :     2.787004
      px      :     1.002081
      py      :     0.907629
      dz2     :     0.000047  d :     0.040603
      dxz     :     0.006670
      dyz     :     0.001848
      dx2y2   :     0.012839
      dxy     :     0.019199
  4 H s       :     1.010279  s :     1.010279
      pz      :     0.004683  p :     0.028339
      px      :     0.017687
      py      :     0.005969
  5 H s       :     0.941658  s :     0.941658
      pz      :     0.003895  p :     0.021691
      px      :     0.002234
      py      :     0.015562
  6 H s       :     0.942049  s :     0.942049
      pz      :     0.005997  p :     0.033985
      px      :     0.006654
      py      :     0.021334
  7 H s       :     0.988169  s :     0.988169
      pz      :     0.008786  p :     0.037252
      px      :     0.014731
      py      :     0.013736


                     *******************************
                     * LOEWDIN POPULATION ANALYSIS *
                     *******************************

----------------------
LOEWDIN ATOMIC CHARGES
----------------------
   0 C :   -0.038585
   1 O :   -0.007619
   2 C :   -0.072620
   3 C :    0.074692
   4 H :   -0.015938
   5 H :    0.050506
   6 H :    0.023590
   7 H :   -0.014026

-------------------------------
LOEWDIN REDUCED ORBITAL CHARGES
-------------------------------
  0 C s       :     2.844342  s :     2.844342
      pz      :     0.766747  p :     2.806357
      px      :     1.036819
      py      :     1.002790
      dz2     :     0.021492  d :     0.387886
      dxz     :     0.013212
      dyz     :     0.059988
      dx2y2   :     0.098448
      dxy     :     0.194747
  1 O s       :     3.495329  s :     3.495329
      pz      :     1.244891  p :     4.480503
      px      :     1.759195
      py      :     1.476417
      dz2     :     0.004358  d :     0.031788
      dxz     :     0.000035
      dyz     :     0.006563
      dx2y2   :     0.013401
      dxy     :     0.007431
  2 C s       :     2.901241  s :     2.901241
      pz      :     0.953774  p :     3.007311
      px      :     1.052375
      py      :     1.001162
      dz2     :     0.012482  d :     0.164068
      dxz     :     0.018957
      dyz     :     0.006984
      dx2y2   :     0.067008
      dxy     :     0.058638
  3 C s       :     2.806249  s :     2.806249
      pz      :     0.849118  p :     2.981560
      px      :     1.067981
      py      :     1.064460
      dz2     :     0.009211  d :     0.137498
      dxz     :     0.017970
      dyz     :     0.005108
      dx2y2   :     0.045690
      dxy     :     0.059520
  4 H s       :     0.924732  s :     0.924732
      pz      :     0.016076  p :     0.091206
      px      :     0.052759
      py      :     0.022371
  5 H s       :     0.895794  s :     0.895794
      pz      :     0.010252  p :     0.053700
      px      :     0.007173
      py      :     0.036275
  6 H s       :     0.881268  s :     0.881268
      pz      :     0.018490  p :     0.095142
      px      :     0.021311
      py      :     0.055341
  7 H s       :     0.888936  s :     0.888936
      pz      :     0.031472  p :     0.125090
      px      :     0.048384
      py      :     0.045234


                      *****************************
                      * MAYER POPULATION ANALYSIS *
                      *****************************

  NA   - Mulliken gross atomic population
  ZA   - Total nuclear charge
  QA   - Mulliken gross atomic charge
  VA   - Mayer's total valence
  BVA  - Mayer's bonded valence
  FA   - Mayer's free valence

  ATOM       NA         ZA         QA         VA         BVA        FA
  0 C      5.7586     6.0000     0.2414     4.2044     4.2044    -0.0000
  1 O      8.2022     8.0000    -0.2022     2.3284     2.3284    -0.0000
  2 C      6.2315     6.0000    -0.2315     3.9807     3.9807    -0.0000
  3 C      5.8042     6.0000     0.1958     3.9681     3.9681    -0.0000
  4 H      1.0386     1.0000    -0.0386     0.9619     0.9619    -0.0000
  5 H      0.9633     1.0000     0.0367     0.9801     0.9801    -0.0000
  6 H      0.9760     1.0000     0.0240     0.9952     0.9952     0.0000
  7 H      1.0254     1.0000    -0.0254     0.9730     0.9730     0.0000

  Mayer bond orders larger than 0.100000
B(  0-C ,  1-O ) :   2.1715 B(  0-C ,  2-C ) :   1.0673 B(  0-C ,  4-H ) :   0.9366 
B(  1-O ,  3-C ) :   0.1061 B(  2-C ,  3-C ) :   1.9269 B(  2-C ,  5-H ) :   0.9285 
B(  3-C ,  6-H ) :   0.9593 B(  3-C ,  7-H ) :   0.9360 

-------
TIMINGS
-------

Total SCF time: 0 days 0 hours 3 min 13 sec 

Total time                  ....     193.954 sec
Sum of individual times     ....     151.501 sec  ( 78.1%)

Fock matrix formation       ....     135.543 sec  ( 69.9%)
  Split-RI-J                ....       0.969 sec  (  0.7% of F)
  Chain of spheres X        ....       9.556 sec  (  7.0% of F)
  XC integration            ....      56.801 sec  ( 41.9% of F)
    Basis function eval.    ....       1.599 sec  (  2.8% of XC)
    Density eval.           ....       0.846 sec  (  1.5% of XC)
    XC-Functional eval.     ....       0.544 sec  (  1.0% of XC)
    XC-Potential eval.      ....       0.597 sec  (  1.1% of XC)
Diagonalization             ....       0.007 sec  (  0.0%)
Density matrix formation    ....       0.001 sec  (  0.0%)
Population analysis         ....       1.961 sec  (  1.0%)
Initial guess               ....       3.872 sec  (  2.0%)
Orbital Transformation      ....       0.000 sec  (  0.0%)
Orbital Orthonormalization  ....       0.000 sec  (  0.0%)
DIIS solution               ....       0.008 sec  (  0.0%)
SOSCF solution              ....       2.334 sec  (  1.2%)
Grid generation             ....       7.777 sec  (  4.0%)

Maximum memory used throughout the entire SCF-calculation: 51.7 MB
------------------------------------------------------------------------------
                        ORCA TD-DFT/TDA CALCULATION
------------------------------------------------------------------------------

Input orbitals are from        ... acrolien.155.gbw
CI-vector output               ... acrolien.155.cis
Tamm-Dancoff approximation     ... operative
CIS-Integral strategy          ... AO-integrals
Integral handling              ... AO integral Direct
Max. core memory used          ... 512 MB
Reference state                ... RHF
Generation of triplets         ... off
Follow IRoot                   ... off
Number of operators            ... 1
Orbital ranges used for CIS calculation:
 Operator 0:  Orbitals   4... 14  to  15... 75
XAS localization array:
 Operator 0:  Orbitals  -1... -1

-------------------
XC-INTEGRATION GRID
-------------------

General Integration Accuracy     IntAcc      ... 3.467
Radial Grid Type                 RadialGrid  ... OptM3 with GC (2021)
Angular Grid (max. ang.)         AngularGrid ... 1 (Lebedev-50)
Angular grid pruning method      GridPruning ... 4 (adaptive)
Weight generation scheme         WeightScheme... Becke
Basis function cutoff            BFCut       ... 1.0000e-11
Integration weight cutoff        WCut        ... 1.0000e-14
Angular grids for H and He will be reduced by one unit
Partially contracted basis set               ... off
Rotationally invariant grid construction     ... off

Total number of grid points                  ...     5492
Total number of batches                      ...       90
Average number of points per batch           ...       61
Average number of grid points per atom       ...      686

---------------------
COSX-INTEGRATION GRID
---------------------

General Integration Accuracy     IntAcc      ... 3.067
Radial Grid Type                 RadialGrid  ... OptM3 with GC (2021)
Angular Grid (max. ang.)         AngularGrid ... 1 (Lebedev-50)
Angular grid pruning method      GridPruning ... 4 (adaptive)
Weight generation scheme         WeightScheme... Becke
Basis function cutoff            BFCut       ... 1.0000e-11
Integration weight cutoff        WCut        ... 1.0000e-14
Angular grids for H and He will be reduced by one unit
Partially contracted basis set               ... on
Rotationally invariant grid construction     ... off

Total number of grid points                  ...     2508
Total number of batches                      ...       45
Average number of points per batch           ...       55
Average number of grid points per atom       ...      314

---------------
TD-DFT XC SETUP
---------------

DFT calculation                         ... on
Name of the grid file                   ... acrolien.155.grid_cis.tmp
Exchange functional (TD-DFT)            ... B88
   X-Alpha parameter    XAlpha (TD-DFT) ...  0.666667
   Becke's b parameter  XBeta (TD-DFT)  ...  0.004200
Correlation functional (TD-DFT)         ... LYP
 LDA part of GGA corr.  LDAOpt (TD-DFT) ... VWN-5
Hybrid DFT                              ... on
   Exchange mixing (TD-DFT)             ...  0.200
   GGA exch. scaling (TD-DFT)           ...  0.720
   GGA corr. scaling (TD-DFT)           ...  0.810

Building densities             ... done
Calculating rho(r) on the grid ... done
Building xc-kernel on the grid ... done
                    *** TD-DFT CALCULATION INITIALIZED ***

------------------------
DAVIDSON-DIAGONALIZATION
------------------------

Dimension of the eigenvalue problem            ...    671
Number of roots to be determined               ...      1
Maximum size of the expansion space            ...     10
Maximum number of iterations                   ...    100
Convergence tolerance for the residual         ...    2.500e-07
Convergence tolerance for the energies         ...    2.500e-07
Orthogonality tolerance                        ...    1.000e-14
Level Shift                                    ...    0.000e+00
Constructing the preconditioner                ... o.k.
Building the initial guess                     ... o.k.
Number of trial vectors determined             ...     10


                       ****Iteration    0****

   Memory handling for direct AO based CIS:
   Memory per vector needed      ...     1 MB
   Memory needed                 ...     0 MB
   Memory available              ...   512 MB
   Number of vectors per batch   ...   512
   Number of batches             ...     1
   Time for densities:            0.000
   Time for RI-J (Direct):        0.070
   Time for K (COSX):             0.397
   Time for XC-Integration:       0.082
   Time for Sigma-Completion:     0.000
   Size of expansion space: 3
   Lowest Energy          :     0.117873124339
   Maximum Energy change  :     0.117873124339 (vector 0)
   Maximum residual norm  :     0.001207180275

                       ****Iteration    1****
   Time for densities:            0.000
   Time for RI-J (Direct):        0.054
   Time for K (COSX):             0.260
   Time for XC-Integration:       0.043
   Time for Sigma-Completion:     0.000
   Size of expansion space: 4
   Lowest Energy          :     0.116400466245
   Maximum Energy change  :     0.001472658094 (vector 0)
   Maximum residual norm  :     0.000149114767

                       ****Iteration    2****
   Time for densities:            0.000
   Time for RI-J (Direct):        0.054
   Time for K (COSX):             0.217
   Time for XC-Integration:       0.043
   Time for Sigma-Completion:     0.000
   Size of expansion space: 5
   Lowest Energy          :     0.116258128170
   Maximum Energy change  :     0.000142338075 (vector 0)
   Maximum residual norm  :     0.000016361128

                       ****Iteration    3****
   Time for densities:            0.000
   Time for RI-J (Direct):        0.055
   Time for K (COSX):             0.206
   Time for XC-Integration:       0.043
   Time for Sigma-Completion:     0.000
   Size of expansion space: 6
   Lowest Energy          :     0.116241356891
   Maximum Energy change  :     0.000016771279 (vector 0)
   Maximum residual norm  :     0.000000905514

                       ****Iteration    4****
   Time for densities:            0.000
   Time for RI-J (Direct):        0.054
   Time for K (COSX):             0.196
   Time for XC-Integration:       0.043
   Time for Sigma-Completion:     0.000
   Size of expansion space: 7
   Lowest Energy          :     0.116240539845
   Maximum Energy change  :     0.000000817045 (vector 0)
   Maximum residual norm  :     0.000000049516

      *** CONVERGENCE OF RESIDUAL NORM REACHED ***

Storing the converged CI vectors               ... acrolien.155.cis1

                 *** DAVIDSON DONE ***

Total time for solving the CIS problem:     2.471sec

------------------------------------
TD-DFT/TDA EXCITED STATES (SINGLETS)
------------------------------------

the weight of the individual excitations are printed if larger than 1.0e-02

STATE  1:  E=   0.116241 au      3.163 eV    25511.8 cm**-1 <S**2> =   0.000000
    14a ->  15a  :     0.976008 (c=  0.98793142)
    14a ->  16a  :     0.011444 (c=  0.10697574)


-----------------------------
TD-DFT/TDA-EXCITATION SPECTRA
-----------------------------

Center of mass = (  0.5762, -0.9077, -0.0002)
Calculating the Dipole integrals                  ... done
Transforming integrals                            ... done
Calculating the Linear Momentum integrals         ... done
Transforming integrals                            ... done
Calculating angular momentum integrals            ... done
Transforming integrals                            ... done

-----------------------------------------------------------------------------
         ABSORPTION SPECTRUM VIA TRANSITION ELECTRIC DIPOLE MOMENTS
-----------------------------------------------------------------------------
State   Energy    Wavelength  fosc         T2        TX        TY        TZ  
        (cm-1)      (nm)                 (au**2)    (au)      (au)      (au) 
-----------------------------------------------------------------------------
   1   25511.8    392.0   0.000288561   0.00372   0.05156   0.02620   0.01947

-----------------------------------------------------------------------------
         ABSORPTION SPECTRUM VIA TRANSITION VELOCITY DIPOLE MOMENTS
-----------------------------------------------------------------------------
State   Energy    Wavelength   fosc        P2         PX        PY        PZ  
        (cm-1)      (nm)                 (au**2)     (au)      (au)      (au) 
-----------------------------------------------------------------------------
   1   25511.8    392.0   0.001085580   0.00019   0.00018   0.00236  -0.01355

-------------------------------------------------------------------
                             CD SPECTRUM
-------------------------------------------------------------------
State  Energy     Wavelength     R         MX        MY        MZ   
       (cm-1)       (nm)     (1e40*cgs)   (au)      (au)      (au)  
-------------------------------------------------------------------
   1   25511.8    392.0      5.24513   0.03161   0.32742   0.04713

-------------------------------------------------------------------
         CD SPECTRUM VIA TRANSITION VELOCITY DIPOLE MOMENTS        
-------------------------------------------------------------------
State  Energy     Wavelength     R         MX        MY        MZ   
       (cm-1)       (nm)     (1e40*cgs)   (au)      (au)      (au)  
-------------------------------------------------------------------
   1   25511.8    392.0      0.57047   0.03161   0.32742   0.04713

Total run time:        4.540 sec

           *** ORCA-CIS/TD-DFT FINISHED WITHOUT ERROR ***

Maximum memory used throughout the entire CIS-calculation: 48.6 MB

-----------------------
CIS/TD-DFT TOTAL ENERGY
-----------------------

    E(SCF)  =   -191.757493436 Eh
    DE(CIS) =      0.116240540 Eh (Root  1)
    ----------------------------- ---------
    E(tot)  =   -191.641252896 Eh


-------------------------   --------------------
FINAL SINGLE POINT ENERGY      -191.641252896077
-------------------------   --------------------


                            ***************************************
                            *     ORCA property calculations      *
                            ***************************************

                                    ---------------------
                                    Active property flags
                                    ---------------------
   (+) Dipole Moment


------------------------------------------------------------------------------
                       ORCA ELECTRIC PROPERTIES CALCULATION
------------------------------------------------------------------------------

Dipole Moment Calculation                       ... on
Quadrupole Moment Calculation                   ... off
Polarizability Calculation                      ... off
GBWName                                         ... acrolien.155.gbw
Electron density                                ... acrolien.155.scfp
The origin for moment calculation is the CENTER OF MASS  = ( 0.576243, -0.907697 -0.000191)

-------------
DIPOLE MOMENT
-------------
                                X             Y             Z
Electronic contribution:     -1.86970      -1.79937       0.13691
Nuclear contribution   :      2.23788       2.66129      -0.13282
                        -----------------------------------------
Total Dipole Moment    :      0.36818       0.86192       0.00409
                        -----------------------------------------
Magnitude (a.u.)       :      0.93727
Magnitude (Debye)      :      2.38236



--------------------
Rotational spectrum 
--------------------
 
Rotational constants in cm-1:     0.706272     0.215572     0.165503 
Rotational constants in MHz : 21173.501084  6462.689483  4961.668819 

 Dipole components along the rotational axes: 
x,y,z [a.u.] :     0.755514    -0.554677     0.003863 
x,y,z [Debye]:     1.920365    -1.409877     0.009818 

 

Timings for individual modules:

Sum of individual times         ...      207.106 sec (=   3.452 min)
GTO integral calculation        ...        7.638 sec (=   0.127 min)   3.7 %
SCF iterations                  ...      194.919 sec (=   3.249 min)  94.1 %
CIS module                      ...        4.549 sec (=   0.076 min)   2.2 %
                             ****ORCA TERMINATED NORMALLY****
TOTAL RUN TIME: 0 days 0 hours 3 minutes 28 seconds 594 msec
