
                                 *****************
                                 * O   R   C   A *
                                 *****************

                                            #,                                       
                                            ###                                      
                                            ####                                     
                                            #####                                    
                                            ######                                   
                                           ########,                                 
                                     ,,################,,,,,                         
                               ,,#################################,,                 
                          ,,##########################################,,             
                       ,#########################################, ''#####,          
                    ,#############################################,,   '####,        
                  ,##################################################,,,,####,       
                ,###########''''           ''''###############################       
              ,#####''   ,,,,##########,,,,          '''####'''          '####       
            ,##' ,,,,###########################,,,                        '##       
           ' ,,###''''                  '''############,,,                           
         ,,##''                                '''############,,,,        ,,,,,,###''
      ,#''                                            '''#######################'''  
     '                                                          ''''####''''         
             ,#######,   #######,   ,#######,      ##                                
            ,#'     '#,  ##    ##  ,#'     '#,    #''#        ######   ,####,        
            ##       ##  ##   ,#'  ##            #'  '#       #        #'  '#        
            ##       ##  #######   ##           ,######,      #####,   #    #        
            '#,     ,#'  ##    ##  '#,     ,#' ,#      #,         ##   #,  ,#        
             '#######'   ##     ##  '#######'  #'      '#     #####' # '####'        



                  #######################################################
                  #                        -***-                        #
                  #          Department of theory and spectroscopy      #
                  #    Directorship and core code : Frank Neese         #
                  #        Max Planck Institute fuer Kohlenforschung    #
                  #                Kaiser Wilhelm Platz 1               #
                  #                 D-45470 Muelheim/Ruhr               #
                  #                      Germany                        #
                  #                                                     #
                  #                  All rights reserved                #
                  #                        -***-                        #
                  #######################################################


                         Program Version 5.0.3 -  RELEASE  -


 With contributions from (in alphabetic order):
   Daniel Aravena         : Magnetic Suceptibility
   Michael Atanasov       : Ab Initio Ligand Field Theory (pilot matlab implementation)
   Alexander A. Auer      : GIAO ZORA, VPT2 properties, NMR spectrum
   Ute Becker             : Parallelization
   Giovanni Bistoni       : ED, misc. LED, open-shell LED, HFLD
   Martin Brehm           : Molecular dynamics
   Dmytro Bykov           : SCF Hessian
   Vijay G. Chilkuri      : MRCI spin determinant printing, contributions to CSF-ICE
   Dipayan Datta          : RHF DLPNO-CCSD density
   Achintya Kumar Dutta   : EOM-CC, STEOM-CC
   Dmitry Ganyushin       : Spin-Orbit,Spin-Spin,Magnetic field MRCI
   Miquel Garcia          : C-PCM and meta-GGA Hessian, CC/C-PCM, Gaussian charge scheme
   Yang Guo               : DLPNO-NEVPT2, F12-NEVPT2, CIM, IAO-localization
   Andreas Hansen         : Spin unrestricted coupled pair/coupled cluster methods
   Benjamin Helmich-Paris : MC-RPA, TRAH-SCF, COSX integrals
   Lee Huntington         : MR-EOM, pCC
   Robert Izsak           : Overlap fitted RIJCOSX, COSX-SCS-MP3, EOM
   Marcus Kettner         : VPT2
   Christian Kollmar      : KDIIS, OOCD, Brueckner-CCSD(T), CCSD density, CASPT2, CASPT2-K
   Simone Kossmann        : Meta GGA functionals, TD-DFT gradient, OOMP2, MP2 Hessian
   Martin Krupicka        : Initial AUTO-CI
   Lucas Lang             : DCDCAS
   Marvin Lechner         : AUTO-CI (C++ implementation), FIC-MRCC
   Dagmar Lenk            : GEPOL surface, SMD
   Dimitrios Liakos       : Extrapolation schemes; Compound Job, initial MDCI parallelization
   Dimitrios Manganas     : Further ROCIS development; embedding schemes
   Dimitrios Pantazis     : SARC Basis sets
   Anastasios Papadopoulos: AUTO-CI, single reference methods and gradients
   Taras Petrenko         : DFT Hessian,TD-DFT gradient, ASA, ECA, R-Raman, ABS, FL, XAS/XES, NRVS
   Peter Pinski           : DLPNO-MP2, DLPNO-MP2 Gradient
   Christoph Reimann      : Effective Core Potentials
   Marius Retegan         : Local ZFS, SOC
   Christoph Riplinger    : Optimizer, TS searches, QM/MM, DLPNO-CCSD(T), (RO)-DLPNO pert. Triples
   Tobias Risthaus        : Range-separated hybrids, TD-DFT gradient, RPA, STAB
   Michael Roemelt        : Original ROCIS implementation
   Masaaki Saitow         : Open-shell DLPNO-CCSD energy and density
   Barbara Sandhoefer     : DKH picture change effects
   Avijit Sen             : IP-ROCIS
   Kantharuban Sivalingam : CASSCF convergence, NEVPT2, FIC-MRCI
   Bernardo de Souza      : ESD, SOC TD-DFT
   Georgi Stoychev        : AutoAux, RI-MP2 NMR, DLPNO-MP2 response
   Willem Van den Heuvel  : Paramagnetic NMR
   Boris Wezisla          : Elementary symmetry handling
   Frank Wennmohs         : Technical directorship


 We gratefully acknowledge several colleagues who have allowed us to
 interface, adapt or use parts of their codes:
   Stefan Grimme, W. Hujo, H. Kruse, P. Pracht,  : VdW corrections, initial TS optimization,
                  C. Bannwarth, S. Ehlert          DFT functionals, gCP, sTDA/sTD-DF
   Ed Valeev, F. Pavosevic, A. Kumar             : LibInt (2-el integral package), F12 methods
   Garnet Chan, S. Sharma, J. Yang, R. Olivares  : DMRG
   Ulf Ekstrom                                   : XCFun DFT Library
   Mihaly Kallay                                 : mrcc  (arbitrary order and MRCC methods)
   Jiri Pittner, Ondrej Demel                    : Mk-CCSD
   Frank Weinhold                                : gennbo (NPA and NBO analysis)
   Christopher J. Cramer and Donald G. Truhlar   : smd solvation model
   Lars Goerigk                                  : TD-DFT with DH, B97 family of functionals
   V. Asgeirsson, H. Jonsson                     : NEB implementation
   FAccTs GmbH                                   : IRC, NEB, NEB-TS, DLPNO-Multilevel, CI-OPT
                                                   MM, QMMM, 2- and 3-layer-ONIOM, Crystal-QMMM,
                                                   LR-CPCM, SF, NACMEs, symmetry and pop. for TD-DFT,
                                                   nearIR, NL-DFT gradient (VV10), updates on ESD,
                                                   ML-optimized integration grids
   S Lehtola, MJT Oliveira, MAL Marques          : LibXC Library
   Liviu Ungur et al                             : ANISO software


 Your calculation uses the libint2 library for the computation of 2-el integrals
 For citations please refer to: http://libint.valeyev.net

 Your ORCA version has been built with support for libXC version: 5.1.0
 For citations please refer to: https://tddft.org/programs/libxc/

 This ORCA versions uses:
   CBLAS   interface :  Fast vector & matrix operations
   LAPACKE interface :  Fast linear algebra routines
   SCALAPACK package :  Parallel linear algebra routines
   Shared memory     :  Shared parallel matrices
   BLAS/LAPACK       :  OpenBLAS 0.3.15  USE64BITINT DYNAMIC_ARCH NO_AFFINITY Haswell SINGLE_THREADED
        Core in use  :  Haswell
   Copyright (c) 2011-2014, The OpenBLAS Project


Your calculation utilizes the geometrical counterpoise correction gCP
Please cite in your paper:
H.Kruse, S. Grimme J.Chem.Phys., 136, (2012), 154101 
   

Your calculation utilizes the atom-pairwise dispersion correction
with the Becke-Johnson damping scheme (D3BJ)
Cite in your paper:
S.Grimme, S.Ehrlich, L.Goerigk, J Comput Chem, (2011), 32, 1456–1465 
S.Grimme, J.Antony, S.Ehrlich and H.Krieg, J.Chem.Phys., 132, (2010), 154104 
   

================================================================================

----- Orbital basis set information -----
Your calculation utilizes the basis: MINIX,
   a combination of small basis sets by S. Grimme (see manual for definitions).

================================================================================
                                        WARNINGS
                       Please study these warnings very carefully!
================================================================================

INFO   : Checking CIS options ...

INFO   : the flag for use of the SHARK integral package has been found!

================================================================================
                                       INPUT FILE
================================================================================
NAME = acrolien.676.com
|  1> ! HF-3c
|  2> !TightSCF
|  3> %scf
|  4>  ConvForced true
|  5>  convergence tight
|  6>  MaxIter 500
|  7> end
|  8>  
|  9> %tddft 
| 10>  nroots 1
| 11> end
| 12> 
| 13> # 	25186
| 14> * xyz 0 1
| 15> 		C   -0.596558  -0.458632   0.055328
| 16> 		O   -0.581521  -1.628581  -0.036557
| 17> 		C    0.656007   0.435125  -0.046652
| 18> 		C    1.850206  -0.126290   0.016490
| 19> 		H   -1.548176   0.037983   0.220181
| 20> 		H    0.581160   1.474943  -0.162277
| 21> 		H    1.772452  -1.228010   0.182868
| 22> 		H    2.649873   0.563109   0.027424
| 23> *
| 24> 
| 25>                          ****END OF INPUT****
================================================================================

                       ****************************
                       * Single Point Calculation *
                       ****************************

---------------------------------
CARTESIAN COORDINATES (ANGSTROEM)
---------------------------------
  C     -0.596558   -0.458632    0.055328
  O     -0.581521   -1.628581   -0.036557
  C      0.656007    0.435125   -0.046652
  C      1.850206   -0.126290    0.016490
  H     -1.548176    0.037983    0.220181
  H      0.581160    1.474943   -0.162277
  H      1.772452   -1.228010    0.182868
  H      2.649873    0.563109    0.027424

----------------------------
CARTESIAN COORDINATES (A.U.)
----------------------------
  NO LB      ZA    FRAG     MASS         X           Y           Z
   0 C     6.0000    0    12.011   -1.127331   -0.866689    0.104555
   1 O     8.0000    0    15.999   -1.098915   -3.077572   -0.069083
   2 C     6.0000    0    12.011    1.239674    0.822267   -0.088160
   3 C     6.0000    0    12.011    3.496383   -0.238654    0.031162
   4 H     1.0000    0     1.008   -2.925629    0.071777    0.416082
   5 H     1.0000    0     1.008    1.098233    2.787238   -0.306659
   6 H     1.0000    0     1.008    3.349449   -2.320603    0.345570
   7 H     1.0000    0     1.008    5.007534    1.064122    0.051824

--------------------------------
INTERNAL COORDINATES (ANGSTROEM)
--------------------------------
 C      0   0   0     0.000000000000     0.00000000     0.00000000
 O      1   0   0     1.173647999698     0.00000000     0.00000000
 C      1   2   0     1.542115616507   124.20496217     0.00000000
 C      3   1   2     1.321092338177   118.99718688   346.70697055
 H      1   2   3     1.085992535775   118.61758970   179.82790654
 H      3   1   2     1.048900704146   121.59269792   166.85427871
 H      4   3   1     1.116921788578   111.30733509   357.73725878
 H      4   3   1     1.055868289346   114.05649615   185.29334631

---------------------------
INTERNAL COORDINATES (A.U.)
---------------------------
 C      0   0   0     0.000000000000     0.00000000     0.00000000
 O      1   0   0     2.217873297054     0.00000000     0.00000000
 C      1   2   0     2.914176182041   124.20496217     0.00000000
 C      3   1   2     2.496502716776   118.99718688   346.70697055
 H      1   2   3     2.052228476097   118.61758970   179.82790654
 H      3   1   2     1.982135072513   121.59269792   166.85427871
 H      4   3   1     2.110676293422   111.30733509   357.73725878
 H      4   3   1     1.995301900355   114.05649615   185.29334631

---------------------
BASIS SET INFORMATION
---------------------
There are 3 groups of distinct atoms

 Group   1 Type C   : 6s3p contracted to 2s1p pattern {33/3}
 Group   2 Type O   : 6s3p contracted to 2s1p pattern {33/3}
 Group   3 Type H   : 3s contracted to 1s pattern {3}

Atom   0C    basis set group =>   1
Atom   1O    basis set group =>   2
Atom   2C    basis set group =>   1
Atom   3C    basis set group =>   1
Atom   4H    basis set group =>   3
Atom   5H    basis set group =>   3
Atom   6H    basis set group =>   3
Atom   7H    basis set group =>   3
------------------------------------------------------------------------------
                           ORCA GTO INTEGRAL CALCULATION
------------------------------------------------------------------------------
------------------------------------------------------------------------------
                   ___                                                        
                  /   \      - P O W E R E D   B Y -                         
                 /     \                                                     
                 |  |  |   _    _      __       _____    __    __             
                 |  |  |  | |  | |    /  \     |  _  \  |  |  /  |          
                  \  \/   | |  | |   /    \    | | | |  |  | /  /          
                 / \  \   | |__| |  /  /\  \   | |_| |  |  |/  /          
                |  |  |   |  __  | /  /__\  \  |    /   |      \           
                |  |  |   | |  | | |   __   |  |    \   |  |\   \          
                \     /   | |  | | |  |  |  |  | |\  \  |  | \   \       
                 \___/    |_|  |_| |__|  |__|  |_| \__\ |__|  \__/        
                                                                              
                      - O R C A' S   B I G   F R I E N D -                    
                                      &                                       
                       - I N T E G R A L  F E E D E R -                       
                                                                              
 v1 FN, 2020, v2 2021                                                         
------------------------------------------------------------------------------


Reading SHARK input file acrolien.676.SHARKINP.tmp ... ok
----------------------
SHARK INTEGRAL PACKAGE
----------------------

Number of atoms                             ...      8
Number of basis functions                   ...     24
Number of shells                            ...     16
Maximum angular momentum                    ...      1
Integral batch strategy                     ... SHARK/LIBINT Hybrid
RI-J (if used) integral strategy            ... SPLIT-RIJ (Revised 2003 algorithm where possible)
Printlevel                                  ...      1
Contraction scheme used                     ... SEGMENTED contraction
Coulomb Range Separation                    ... NOT USED
Exchange Range Separation                   ... NOT USED
Finite Nucleus Model                        ... NOT USED
Auxiliary Coulomb fitting basis             ... NOT available
Auxiliary J/K fitting basis                 ... NOT available
Auxiliary Correlation fitting basis         ... NOT available
Auxiliary 'external' fitting basis          ... NOT available
Integral threshold                          ...     2.500000e-11
Primitive cut-off                           ...     2.500000e-12
Primitive pair pre-selection threshold      ...     2.500000e-12

Calculating pre-screening integrals         ... done (  0.0 sec) Dimension = 16
Organizing shell pair data                  ... done (  0.3 sec)
Shell pair information
Total number of shell pairs                 ...       136
Shell pairs after pre-screening             ...       133
Total number of primitive shell pairs       ...      1224
Primitive shell pairs kept                  ...      1004
          la=0 lb=0:     75 shell pairs
          la=1 lb=0:     48 shell pairs
          la=1 lb=1:     10 shell pairs

Calculating one electron integrals          ... done (  0.0 sec)
Calculating Nuclear repulsion               ... done (  0.0 sec) ENN=    105.480513162142 Eh
Calculating 4-index integrals               ... 
    -> SHARK/Ints2Disk: Thresh =     2.500000e-11 TCut=    2.500000e-12 
    -> calling libint FockFlag=2 Lmax_loc=1
    ->Total LIBINT loop time =    0.000 sec
    -> L=0 0 0 0:     0.003 sec done=      2816 (=100.0%) skipped=         0 
    -> L=1 0 0 0:     0.007 sec done=      3595 (=100.0%) skipped=         0 
    -> L=1 0 1 0:     0.004 sec done=      1176 (=100.0%) skipped=         0 
    -> L=1 1 0 0:     0.003 sec done=       750 (=100.0%) skipped=         0 
    -> L=1 1 1 0:     0.004 sec done=       480 (=100.0%) skipped=         0 
    -> L=1 1 1 1:     0.001 sec done=        55 (=100.0%) skipped=         0 
    ->Total SHARK integral loop time =    0.022 sec
    -> Total Integral generation matrix time =    0.029 sec
    -> Number of small integrals   =       524
    -> Number of medium integrals  =      2316
    -> Number of large integrals   =     40890
    -> Number of MB stored         =         0 MB


SHARK setup successfully completed in   1.7 seconds

Maximum memory used throughout the entire GTOINT-calculation: 29.5 MB
-------------------------------------------------------------------------------
                                 ORCA SCF
-------------------------------------------------------------------------------

------------
SCF SETTINGS
------------
Hamiltonian:
 Ab initio Hamiltonian  Method          .... Hartree-Fock(GTOs)


General Settings:
 Integral files         IntName         .... acrolien.676
 Hartree-Fock type      HFTyp           .... RHF
 Total Charge           Charge          ....    0
 Multiplicity           Mult            ....    1
 Number of Electrons    NEL             ....   30
 Basis Dimension        Dim             ....   24
 Nuclear Repulsion      ENuc            ....    105.4805131621 Eh

Convergence Acceleration:
 DIIS                   CNVDIIS         .... on
   Start iteration      DIISMaxIt       ....    12
   Startup error        DIISStart       ....  0.200000
   # of expansion vecs  DIISMaxEq       ....     5
   Bias factor          DIISBfac        ....   1.050
   Max. coefficient     DIISMaxC        ....  10.000
 Trust-Rad. Augm. Hess. CNVTRAH         .... auto
   Auto Start mean grad. ratio tolernc. ....  1.125000
   Auto Start start iteration           ....    20
   Auto Start num. interpolation iter.  ....    10
   Max. Number of Micro iterations      ....    16
   Max. Number of Macro iterations      .... Maxiter - #DIIS iter
   Number of Davidson start vectors     ....     2
   Converg. threshold I  (grad. norm)   ....   1.000e-05
   Converg. threshold II (energy diff.) ....   1.000e-08
   Grad. Scal. Fac. for Micro threshold ....   0.100
   Minimum threshold for Micro iter.    ....   0.010
   NR start threshold (gradient norm)   ....   0.001
   Initial trust radius                 ....   0.400
   Minimum AH scaling param. (alpha)    ....   1.000
   Maximum AH scaling param. (alpha)    .... 1000.000
   Orbital update algorithm             .... Taylor
   White noise on init. David. guess    .... on
   Maximum white noise                  ....   0.010
   Quad. conv. algorithm                .... NR
 SOSCF                  CNVSOSCF        .... on
   Start iteration      SOSCFMaxIt      ....   150
   Startup grad/error   SOSCFStart      ....  0.003300
 Level Shifting         CNVShift        .... on
   Level shift para.    LevelShift      ....    0.2500
   Turn off err/grad.   ShiftErr        ....    0.0010
 Zerner damping         CNVZerner       .... off
 Static damping         CNVDamp         .... on
   Fraction old density DampFac         ....    0.7000
   Max. Damping (<1)    DampMax         ....    0.9800
   Min. Damping (>=0)   DampMin         ....    0.0000
   Turn off err/grad.   DampErr         ....    0.1000
 Fernandez-Rico         CNVRico         .... off

SCF Procedure:
 Maximum # iterations   MaxIter         ....   500
 SCF integral mode      SCFMode         .... Conventional
 Integral Threshold     Thresh          ....  2.500e-11 Eh
 Primitive CutOff       TCut            ....  2.500e-12 Eh
 Integral Buffer length BufferLength    .... 1048576
 Integral index format  IndFormat       ....     0
 Integral value format  ValFormat       ....     0
 Integral Storage       Thresh          ....  2.500e-11 Eh

Convergence Tolerance:
 Convergence Check Mode ConvCheckMode   .... Total+1el-Energy
 Convergence forced     ConvForced      .... 1
 Energy Change          TolE            ....  1.000e-08 Eh
 1-El. energy change                    ....  1.000e-05 Eh
 Orbital Gradient       TolG            ....  1.000e-05
 Orbital Rotation angle TolX            ....  1.000e-05
 DIIS Error             TolErr          ....  5.000e-07


Diagonalization of the overlap matrix:
Smallest eigenvalue                        ... 1.751e-01
Time for diagonalization                   ...    0.000 sec
Threshold for overlap eigenvalues          ... 1.000e-08
Number of eigenvalues below threshold      ... 0
Time for construction of square roots      ...    0.238 sec
Total time needed                          ...    0.238 sec

--------------------------------
INITIAL GUESS: MINIMAL BASIS EHT
--------------------------------
The minimal basis has 24 functions
EHT matrix was diagonalized
Basis set overlap was calculated now projecting the orbitals
Using GuessMode=FMatrix for the initial guess
C*T matrix was formed
Effective Fockian was calculated
Effective Fockian was diagonalized
Initial density was built
                      ------------------
                      INITIAL GUESS DONE
                      ------------------

 InCore treatment chosen:
   Memory dedicated               ...    1024 MB
   Memory needed                  ...      0 MB
   Number of tiny    integrals    ...     524
   Number of small   integrals    ...    2316
   Number of regular integrals    ...   40890

--------------
SCF ITERATIONS
--------------
ITER       Energy         Delta-E        Max-DP      RMS-DP      [F,P]     Damp
  0   -189.0564031655   0.000000000000 0.13403407  0.01348308  0.3216693 0.7000
  1   -189.1655742371  -0.109171071589 0.11177891  0.01080581  0.2139260 0.7000
                               ***Turning on DIIS***
  2   -189.2375364448  -0.071962207765 0.07065913  0.00709150  0.1301781 0.7000
  3   -189.3052479413  -0.067711496467 0.11913137  0.01432873  0.0938993 0.0000
  4   -189.4007254275  -0.095477486237 0.01675620  0.00169169  0.0057628 0.0000
  5   -189.3995653922   0.001160035354 0.00716606  0.00073786  0.0044624 0.0000
                      *** Initiating the SOSCF procedure ***
                           *** Shutting down DIIS ***
                      *** Re-Reading the Fockian *** 
                      *** Removing any level shift *** 
ITER      Energy       Delta-E        Grad      Rot      Max-DP    RMS-DP
  6   -189.40015831  -0.0005929137  0.001078  0.001078  0.002209  0.000298
  7   -189.40137525  -0.0012169476  0.000347  0.000493  0.000857  0.000091
  8   -189.40137690  -0.0000016493  0.000120  0.000334  0.000615  0.000079
  9   -189.40137735  -0.0000004426  0.000047  0.000105  0.000180  0.000015
 10   -189.40137737  -0.0000000296  0.000029  0.000129  0.000227  0.000016
 11   -189.40137739  -0.0000000178  0.000011  0.000041  0.000080  0.000006
                 **** Energy Check signals convergence ****
              ***Rediagonalizing the Fockian in SOSCF/NRSCF***

               *****************************************************
               *                     SUCCESS                       *
               *           SCF CONVERGED AFTER  12 CYCLES          *
               *****************************************************


----------------
TOTAL SCF ENERGY
----------------

Total Energy       :         -189.40137740 Eh           -5153.87350 eV

Components:
Nuclear Repulsion  :          105.48051316 Eh            2870.27068 eV
Electronic Energy  :         -294.88189056 Eh           -8024.14418 eV
One Electron Energy:         -465.66218177 Eh          -12671.31216 eV
Two Electron Energy:          170.78029121 Eh            4647.16798 eV

Virial components:
Potential Energy   :         -378.60224424 Eh          -10302.29082 eV
Kinetic Energy     :          189.20086685 Eh            5148.41733 eV
Virial Ratio       :            2.00105978


---------------
SCF CONVERGENCE
---------------

  Last Energy change         ...   -2.3186e-09  Tolerance :   1.0000e-08
  Last MAX-Density change    ...    2.1017e-05  Tolerance :   1.0000e-07
  Last RMS-Density change    ...    1.9921e-06  Tolerance :   5.0000e-09
  Last Orbital Gradient      ...    5.2106e-06  Tolerance :   1.0000e-05
  Last Orbital Rotation      ...    8.0474e-06  Tolerance :   1.0000e-05

             **** THE GBW FILE WAS UPDATED (acrolien.676.gbw) ****
             **** DENSITY acrolien.676.scfp WAS UPDATED ****
             **** ENERGY FILE WAS UPDATED (acrolien.676.en.tmp) ****
             **** THE GBW FILE WAS UPDATED (acrolien.676.gbw) ****
             **** DENSITY acrolien.676.scfp WAS UPDATED ****
----------------
ORBITAL ENERGIES
----------------

  NO   OCC          E(Eh)            E(eV) 
   0   2.0000     -20.381055      -554.5967 
   1   2.0000     -11.307411      -307.6903 
   2   2.0000     -11.183537      -304.3195 
   3   2.0000     -11.180004      -304.2234 
   4   2.0000      -1.435261       -39.0554 
   5   2.0000      -1.082271       -29.4501 
   6   2.0000      -0.877943       -23.8900 
   7   2.0000      -0.750260       -20.4156 
   8   2.0000      -0.723396       -19.6846 
   9   2.0000      -0.618325       -16.8255 
  10   2.0000      -0.599585       -16.3155 
  11   2.0000      -0.556467       -15.1422 
  12   2.0000      -0.540107       -14.6971 
  13   2.0000      -0.413019       -11.2388 
  14   2.0000      -0.402156       -10.9432 
  15   0.0000       0.148207         4.0329 
  16   0.0000       0.303743         8.2653 
  17   0.0000       0.535240        14.5646 
  18   0.0000       0.595048        16.1921 
  19   0.0000       0.655810        17.8455 
  20   0.0000       0.740995        20.1635 
  21   0.0000       0.862487        23.4695 
  22   0.0000       0.963092        26.2071 
  23   0.0000       1.047224        28.4964 

                    ********************************
                    * MULLIKEN POPULATION ANALYSIS *
                    ********************************

-----------------------
MULLIKEN ATOMIC CHARGES
-----------------------
   0 C :    0.180364
   1 O :   -0.362981
   2 C :   -0.175722
   3 C :   -0.238802
   4 H :    0.135372
   5 H :    0.138322
   6 H :    0.171409
   7 H :    0.152038
Sum of atomic charges:   -0.0000000

--------------------------------
MULLIKEN REDUCED ORBITAL CHARGES
--------------------------------
  0 C s       :     3.057897  s :     3.057897
      pz      :     0.854716  p :     2.761739
      px      :     1.060893
      py      :     0.846130
  1 O s       :     3.822853  s :     3.822853
      pz      :     1.200665  p :     4.540128
      px      :     1.889658
      py      :     1.449805
  2 C s       :     3.091088  s :     3.091088
      pz      :     1.041484  p :     3.084634
      px      :     0.982315
      py      :     1.060836
  3 C s       :     3.149085  s :     3.149085
      pz      :     0.927396  p :     3.089717
      px      :     1.057166
      py      :     1.105156
  4 H s       :     0.864628  s :     0.864628
  5 H s       :     0.861678  s :     0.861678
  6 H s       :     0.828591  s :     0.828591
  7 H s       :     0.847962  s :     0.847962


                     *******************************
                     * LOEWDIN POPULATION ANALYSIS *
                     *******************************

----------------------
LOEWDIN ATOMIC CHARGES
----------------------
   0 C :    0.153213
   1 O :   -0.254156
   2 C :   -0.132407
   3 C :   -0.136750
   4 H :    0.068817
   5 H :    0.084315
   6 H :    0.118325
   7 H :    0.098645

-------------------------------
LOEWDIN REDUCED ORBITAL CHARGES
-------------------------------
  0 C s       :     2.984807  s :     2.984807
      pz      :     0.859875  p :     2.861980
      px      :     1.063391
      py      :     0.938714
  1 O s       :     3.676350  s :     3.676350
      pz      :     1.197041  p :     4.577806
      px      :     1.891958
      py      :     1.488807
  2 C s       :     2.978111  s :     2.978111
      pz      :     1.037845  p :     3.154297
      px      :     1.045703
      py      :     1.070749
  3 C s       :     3.009591  s :     3.009591
      pz      :     0.930079  p :     3.127160
      px      :     1.099014
      py      :     1.098066
  4 H s       :     0.931183  s :     0.931183
  5 H s       :     0.915685  s :     0.915685
  6 H s       :     0.881675  s :     0.881675
  7 H s       :     0.901355  s :     0.901355


                      *****************************
                      * MAYER POPULATION ANALYSIS *
                      *****************************

  NA   - Mulliken gross atomic population
  ZA   - Total nuclear charge
  QA   - Mulliken gross atomic charge
  VA   - Mayer's total valence
  BVA  - Mayer's bonded valence
  FA   - Mayer's free valence

  ATOM       NA         ZA         QA         VA         BVA        FA
  0 C      5.8196     6.0000     0.1804     3.8582     3.8582    -0.0000
  1 O      8.3630     8.0000    -0.3630     2.0759     2.0759     0.0000
  2 C      6.1757     6.0000    -0.1757     3.9749     3.9749    -0.0000
  3 C      6.2388     6.0000    -0.2388     3.9382     3.9382    -0.0000
  4 H      0.8646     1.0000     0.1354     0.9817     0.9817    -0.0000
  5 H      0.8617     1.0000     0.1383     0.9809     0.9809    -0.0000
  6 H      0.8286     1.0000     0.1714     0.9706     0.9706    -0.0000
  7 H      0.8480     1.0000     0.1520     0.9769     0.9769    -0.0000

  Mayer bond orders larger than 0.100000
B(  0-C ,  1-O ) :   1.9294 B(  0-C ,  2-C ) :   0.9859 B(  0-C ,  4-H ) :   0.9239 
B(  2-C ,  3-C ) :   1.9671 B(  2-C ,  5-H ) :   0.9637 B(  3-C ,  6-H ) :   0.9519 
B(  3-C ,  7-H ) :   0.9636 

-------
TIMINGS
-------

Total SCF time: 0 days 0 hours 0 min 4 sec 

Total time                  ....       4.753 sec
Sum of individual times     ....       0.642 sec  ( 13.5%)

Fock matrix formation       ....       0.089 sec  (  1.9%)
Diagonalization             ....       0.001 sec  (  0.0%)
Density matrix formation    ....       0.000 sec  (  0.0%)
Population analysis         ....       0.542 sec  ( 11.4%)
Initial guess               ....       0.002 sec  (  0.0%)
Orbital Transformation      ....       0.000 sec  (  0.0%)
Orbital Orthonormalization  ....       0.000 sec  (  0.0%)
DIIS solution               ....       0.004 sec  (  0.1%)
SOSCF solution              ....       0.003 sec  (  0.1%)

Maximum memory used throughout the entire SCF-calculation: 225.0 MB
------------------------------------------------------------------------------
                         ORCA CIS CALCULATION
------------------------------------------------------------------------------

Input orbitals are from        ... acrolien.676.gbw
CI-vector output               ... acrolien.676.cis
Tamm-Dancoff approximation     ... operative
CIS-Integral strategy          ... AO-integrals
Integral handling              ... AO integral Conventional
Reference state                ... RHF
Generation of triplets         ... off
Follow IRoot                   ... off
Number of operators            ... 1
Orbital ranges used for CIS calculation:
 Operator 0:  Orbitals   4... 14  to  15... 23
XAS localization array:
 Operator 0:  Orbitals  -1... -1

------------------------
DAVIDSON-DIAGONALIZATION
------------------------

Dimension of the eigenvalue problem            ...     99
Number of roots to be determined               ...      1
Maximum size of the expansion space            ...     10
Maximum number of iterations                   ...    100
Convergence tolerance for the residual         ...    2.500e-07
Convergence tolerance for the energies         ...    2.500e-07
Orthogonality tolerance                        ...    1.000e-14
Level Shift                                    ...    0.000e+00
Constructing the preconditioner                ... o.k.
Building the initial guess                     ... o.k.
Number of trial vectors determined             ...     10


                       ****Iteration    0****

   Memory handling for direct AO based CIS:
   Memory per vector needed      ...     1 MB
   Memory needed                 ...     0 MB
   Memory available              ...   512 MB
   Number of vectors per batch   ...   512
   Number of batches             ...     1
   Time for densities:            0.001
   SHARK[4]
   Time for Sigma-Completion:     0.000
   Size of expansion space: 3
   Lowest Energy          :     0.223422452714
   Maximum Energy change  :     0.223422452714 (vector 0)
   Maximum residual norm  :     0.014678050030

                       ****Iteration    1****
   Time for densities:            0.000
   SHARK[4]
   Time for Sigma-Completion:     0.000
   Size of expansion space: 4
   Lowest Energy          :     0.168161253772
   Maximum Energy change  :     0.055261198942 (vector 0)
   Maximum residual norm  :     0.001642635898

                       ****Iteration    2****
   Time for densities:            0.000
   SHARK[4]
   Time for Sigma-Completion:     0.000
   Size of expansion space: 5
   Lowest Energy          :     0.163597744145
   Maximum Energy change  :     0.004563509627 (vector 0)
   Maximum residual norm  :     0.000141842492

                       ****Iteration    3****
   Time for densities:            0.000
   SHARK[4]
   Time for Sigma-Completion:     0.000
   Size of expansion space: 6
   Lowest Energy          :     0.163327198739
   Maximum Energy change  :     0.000270545405 (vector 0)
   Maximum residual norm  :     0.000017912293

                       ****Iteration    4****
   Time for densities:            0.000
   SHARK[4]
   Time for Sigma-Completion:     0.000
   Size of expansion space: 7
   Lowest Energy          :     0.163300955332
   Maximum Energy change  :     0.000026243408 (vector 0)
   Maximum residual norm  :     0.000001676615

                       ****Iteration    5****
   Time for densities:            0.000
   SHARK[4]
   Time for Sigma-Completion:     0.000
   Size of expansion space: 8
   Lowest Energy          :     0.163298738760
   Maximum Energy change  :     0.000002216571 (vector 0)
   Maximum residual norm  :     0.000000085537

      *** CONVERGENCE OF RESIDUAL NORM REACHED ***

Storing the converged CI vectors               ... acrolien.676.cis1

                 *** DAVIDSON DONE ***

Total time for solving the CIS problem:     2.354sec

-----------------------------
CIS-EXCITED STATES (SINGLETS)
-----------------------------

the weight of the individual excitations are printed if larger than 1.0e-02

STATE  1:  E=   0.163299 au      4.444 eV    35839.9 cm**-1 <S**2> =   0.000000
    10a ->  15a  :     0.016317 (c= -0.12773692)
    10a ->  16a  :     0.014150 (c= -0.11895316)
    13a ->  15a  :     0.740584 (c= -0.86057203)
    13a ->  16a  :     0.165061 (c= -0.40627666)
    14a ->  15a  :     0.030192 (c= -0.17375830)


----------------------
CIS-EXCITATION SPECTRA
----------------------

Center of mass = (  0.5769, -0.9101, -0.0004)
Calculating the Dipole integrals                  ... done
Transforming integrals                            ... done
Calculating the Linear Momentum integrals         ... done
Transforming integrals                            ... done
Calculating angular momentum integrals            ... done
Transforming integrals                            ... done

-----------------------------------------------------------------------------
         ABSORPTION SPECTRUM VIA TRANSITION ELECTRIC DIPOLE MOMENTS
-----------------------------------------------------------------------------
State   Energy    Wavelength  fosc         T2        TX        TY        TZ  
        (cm-1)      (nm)                 (au**2)    (au)      (au)      (au) 
-----------------------------------------------------------------------------
   1   35839.9    279.0   0.000011161   0.00010  -0.00152  -0.00077   0.00998

-----------------------------------------------------------------------------
         ABSORPTION SPECTRUM VIA TRANSITION VELOCITY DIPOLE MOMENTS
-----------------------------------------------------------------------------
State   Energy    Wavelength   fosc        P2         PX        PY        PZ  
        (cm-1)      (nm)                 (au**2)     (au)      (au)      (au) 
-----------------------------------------------------------------------------
   1   35839.9    279.0   0.000912658   0.00022  -0.00136   0.00141  -0.01482

-------------------------------------------------------------------
                             CD SPECTRUM
-------------------------------------------------------------------
State  Energy     Wavelength     R         MX        MY        MZ   
       (cm-1)       (nm)     (1e40*cgs)   (au)      (au)      (au)  
-------------------------------------------------------------------
   1   35839.9    279.0      0.05225   0.01805   0.48103   0.05108

-------------------------------------------------------------------
         CD SPECTRUM VIA TRANSITION VELOCITY DIPOLE MOMENTS        
-------------------------------------------------------------------
State  Energy     Wavelength     R         MX        MY        MZ   
       (cm-1)       (nm)     (1e40*cgs)   (au)      (au)      (au)  
-------------------------------------------------------------------
   1   35839.9    279.0     -0.29564   0.01805   0.48103   0.05108

Total run time:        3.382 sec

           *** ORCA-CIS/TD-DFT FINISHED WITHOUT ERROR ***

Maximum memory used throughout the entire CIS-calculation: 51.7 MB

-----------------------
CIS/TD-DFT TOTAL ENERGY
-----------------------

    E(SCF)  =   -189.401377395 Eh
    DE(CIS) =      0.163298739 Eh (Root  1)
    ----------------------------- ---------
    E(tot)  =   -189.238078656 Eh



-------------------------------------------------------------------------------
                          DFT DISPERSION CORRECTION                            
                                                                               
                              DFTD3 V3.1  Rev 1                                
                          USING Becke-Johnson damping                          
-------------------------------------------------------------------------------
Hartree-Fock is recognized
Active option DFTDOPT                   ...         4   

molecular C6(AA) [au] = 660.798004 


            DFT-D V3
 parameters
 using HF/MINIX parameters
 s6 scaling factor         :     1.0000 
 a1 scaling factor         :     0.4171 
 s8 scaling factor         :     0.8777 
 a2 scaling factor         :     2.9149 
 ad hoc parameters k1-k3   :    16.0000     1.3333    -4.0000 

 Edisp/kcal,au: -16.386412650493  -0.026113407972 
 E6   /kcal   :  -9.067950292 
 E8   /kcal   :  -7.318462359 
 % E8         :  44.661772621 

-------------------------   ----------------
Dispersion correction           -0.026113408
-------------------------   ----------------

------------------   -----------------
gCP+bas correction        -0.056690273
------------------   -----------------
----------------------------   ----------------
Total correction to HF/MINIX       -0.082803681
----------------------------   ----------------


-------------------------   --------------------
FINAL SINGLE POINT ENERGY      -189.320882337527
-------------------------   --------------------


                            ***************************************
                            *     ORCA property calculations      *
                            ***************************************

                                    ---------------------
                                    Active property flags
                                    ---------------------
   (+) Dipole Moment


------------------------------------------------------------------------------
                       ORCA ELECTRIC PROPERTIES CALCULATION
------------------------------------------------------------------------------

Dipole Moment Calculation                       ... on
Quadrupole Moment Calculation                   ... off
Polarizability Calculation                      ... off
GBWName                                         ... acrolien.676.gbw
Electron density                                ... acrolien.676.scfp
The origin for moment calculation is the CENTER OF MASS  = ( 0.576924, -0.910080 -0.000413)

-------------
DIPOLE MOMENT
-------------
                                X             Y             Z
Electronic contribution:     -1.85560      -1.71781      -0.14273
Nuclear contribution   :      2.08289       2.58591       0.25190
                        -----------------------------------------
Total Dipole Moment    :      0.22730       0.86810       0.10916
                        -----------------------------------------
Magnitude (a.u.)       :      0.90398
Magnitude (Debye)      :      2.29774



--------------------
Rotational spectrum 
--------------------
 
Rotational constants in cm-1:     0.798731     0.206862     0.164942 
Rotational constants in MHz : 23945.355088  6201.568235  4944.849075 

 Dipole components along the rotational axes: 
x,y,z [a.u.] :     0.659259    -0.608583     0.110391 
x,y,z [Debye]:     1.675703    -1.546895     0.280592 

 

Timings for individual modules:

Sum of individual times         ...       11.656 sec (=   0.194 min)
GTO integral calculation        ...        2.866 sec (=   0.048 min)  24.6 %
SCF iterations                  ...        5.242 sec (=   0.087 min)  45.0 %
CIS module                      ...        3.548 sec (=   0.059 min)  30.4 %
                             ****ORCA TERMINATED NORMALLY****
TOTAL RUN TIME: 0 days 0 hours 0 minutes 12 seconds 880 msec
