
                                 *****************
                                 * O   R   C   A *
                                 *****************

                                            #,                                       
                                            ###                                      
                                            ####                                     
                                            #####                                    
                                            ######                                   
                                           ########,                                 
                                     ,,################,,,,,                         
                               ,,#################################,,                 
                          ,,##########################################,,             
                       ,#########################################, ''#####,          
                    ,#############################################,,   '####,        
                  ,##################################################,,,,####,       
                ,###########''''           ''''###############################       
              ,#####''   ,,,,##########,,,,          '''####'''          '####       
            ,##' ,,,,###########################,,,                        '##       
           ' ,,###''''                  '''############,,,                           
         ,,##''                                '''############,,,,        ,,,,,,###''
      ,#''                                            '''#######################'''  
     '                                                          ''''####''''         
             ,#######,   #######,   ,#######,      ##                                
            ,#'     '#,  ##    ##  ,#'     '#,    #''#        ######   ,####,        
            ##       ##  ##   ,#'  ##            #'  '#       #        #'  '#        
            ##       ##  #######   ##           ,######,      #####,   #    #        
            '#,     ,#'  ##    ##  '#,     ,#' ,#      #,         ##   #,  ,#        
             '#######'   ##     ##  '#######'  #'      '#     #####' # '####'        



                  #######################################################
                  #                        -***-                        #
                  #          Department of theory and spectroscopy      #
                  #    Directorship and core code : Frank Neese         #
                  #        Max Planck Institute fuer Kohlenforschung    #
                  #                Kaiser Wilhelm Platz 1               #
                  #                 D-45470 Muelheim/Ruhr               #
                  #                      Germany                        #
                  #                                                     #
                  #                  All rights reserved                #
                  #                        -***-                        #
                  #######################################################


                         Program Version 5.0.3 -  RELEASE  -


 With contributions from (in alphabetic order):
   Daniel Aravena         : Magnetic Suceptibility
   Michael Atanasov       : Ab Initio Ligand Field Theory (pilot matlab implementation)
   Alexander A. Auer      : GIAO ZORA, VPT2 properties, NMR spectrum
   Ute Becker             : Parallelization
   Giovanni Bistoni       : ED, misc. LED, open-shell LED, HFLD
   Martin Brehm           : Molecular dynamics
   Dmytro Bykov           : SCF Hessian
   Vijay G. Chilkuri      : MRCI spin determinant printing, contributions to CSF-ICE
   Dipayan Datta          : RHF DLPNO-CCSD density
   Achintya Kumar Dutta   : EOM-CC, STEOM-CC
   Dmitry Ganyushin       : Spin-Orbit,Spin-Spin,Magnetic field MRCI
   Miquel Garcia          : C-PCM and meta-GGA Hessian, CC/C-PCM, Gaussian charge scheme
   Yang Guo               : DLPNO-NEVPT2, F12-NEVPT2, CIM, IAO-localization
   Andreas Hansen         : Spin unrestricted coupled pair/coupled cluster methods
   Benjamin Helmich-Paris : MC-RPA, TRAH-SCF, COSX integrals
   Lee Huntington         : MR-EOM, pCC
   Robert Izsak           : Overlap fitted RIJCOSX, COSX-SCS-MP3, EOM
   Marcus Kettner         : VPT2
   Christian Kollmar      : KDIIS, OOCD, Brueckner-CCSD(T), CCSD density, CASPT2, CASPT2-K
   Simone Kossmann        : Meta GGA functionals, TD-DFT gradient, OOMP2, MP2 Hessian
   Martin Krupicka        : Initial AUTO-CI
   Lucas Lang             : DCDCAS
   Marvin Lechner         : AUTO-CI (C++ implementation), FIC-MRCC
   Dagmar Lenk            : GEPOL surface, SMD
   Dimitrios Liakos       : Extrapolation schemes; Compound Job, initial MDCI parallelization
   Dimitrios Manganas     : Further ROCIS development; embedding schemes
   Dimitrios Pantazis     : SARC Basis sets
   Anastasios Papadopoulos: AUTO-CI, single reference methods and gradients
   Taras Petrenko         : DFT Hessian,TD-DFT gradient, ASA, ECA, R-Raman, ABS, FL, XAS/XES, NRVS
   Peter Pinski           : DLPNO-MP2, DLPNO-MP2 Gradient
   Christoph Reimann      : Effective Core Potentials
   Marius Retegan         : Local ZFS, SOC
   Christoph Riplinger    : Optimizer, TS searches, QM/MM, DLPNO-CCSD(T), (RO)-DLPNO pert. Triples
   Tobias Risthaus        : Range-separated hybrids, TD-DFT gradient, RPA, STAB
   Michael Roemelt        : Original ROCIS implementation
   Masaaki Saitow         : Open-shell DLPNO-CCSD energy and density
   Barbara Sandhoefer     : DKH picture change effects
   Avijit Sen             : IP-ROCIS
   Kantharuban Sivalingam : CASSCF convergence, NEVPT2, FIC-MRCI
   Bernardo de Souza      : ESD, SOC TD-DFT
   Georgi Stoychev        : AutoAux, RI-MP2 NMR, DLPNO-MP2 response
   Willem Van den Heuvel  : Paramagnetic NMR
   Boris Wezisla          : Elementary symmetry handling
   Frank Wennmohs         : Technical directorship


 We gratefully acknowledge several colleagues who have allowed us to
 interface, adapt or use parts of their codes:
   Stefan Grimme, W. Hujo, H. Kruse, P. Pracht,  : VdW corrections, initial TS optimization,
                  C. Bannwarth, S. Ehlert          DFT functionals, gCP, sTDA/sTD-DF
   Ed Valeev, F. Pavosevic, A. Kumar             : LibInt (2-el integral package), F12 methods
   Garnet Chan, S. Sharma, J. Yang, R. Olivares  : DMRG
   Ulf Ekstrom                                   : XCFun DFT Library
   Mihaly Kallay                                 : mrcc  (arbitrary order and MRCC methods)
   Jiri Pittner, Ondrej Demel                    : Mk-CCSD
   Frank Weinhold                                : gennbo (NPA and NBO analysis)
   Christopher J. Cramer and Donald G. Truhlar   : smd solvation model
   Lars Goerigk                                  : TD-DFT with DH, B97 family of functionals
   V. Asgeirsson, H. Jonsson                     : NEB implementation
   FAccTs GmbH                                   : IRC, NEB, NEB-TS, DLPNO-Multilevel, CI-OPT
                                                   MM, QMMM, 2- and 3-layer-ONIOM, Crystal-QMMM,
                                                   LR-CPCM, SF, NACMEs, symmetry and pop. for TD-DFT,
                                                   nearIR, NL-DFT gradient (VV10), updates on ESD,
                                                   ML-optimized integration grids
   S Lehtola, MJT Oliveira, MAL Marques          : LibXC Library
   Liviu Ungur et al                             : ANISO software


 Your calculation uses the libint2 library for the computation of 2-el integrals
 For citations please refer to: http://libint.valeyev.net

 Your ORCA version has been built with support for libXC version: 5.1.0
 For citations please refer to: https://tddft.org/programs/libxc/

 This ORCA versions uses:
   CBLAS   interface :  Fast vector & matrix operations
   LAPACKE interface :  Fast linear algebra routines
   SCALAPACK package :  Parallel linear algebra routines
   Shared memory     :  Shared parallel matrices
   BLAS/LAPACK       :  OpenBLAS 0.3.15  USE64BITINT DYNAMIC_ARCH NO_AFFINITY Haswell SINGLE_THREADED
        Core in use  :  Haswell
   Copyright (c) 2011-2014, The OpenBLAS Project


================================================================================

----- Orbital basis set information -----
Your calculation utilizes the basis: cc-pVDZ 
       H, B-Ne : Obtained from the ccRepo (grant-hill.group.shef.ac.uk/ccrepo) Feb. 2017
                 T. H. Dunning, Jr., J. Chem. Phys. 90, 1007 (1989)
            He : Obtained from the ccRepo (grant-hill.group.shef.ac.uk/ccrepo) Feb. 2017
                 D. E. Woon, T. H. Dunning, Jr., J. Chem. Phys. 100, 2975 (1994)
  Li-Be, Na-Mg : Obtained from the ccRepo (grant-hill.group.shef.ac.uk/ccrepo) Feb. 2017
                 B. P. Prascher, D. E. Woon, K. A. Peterson, T. H. Dunning, Jr., A. K. Wilson, Theor. Chem. Acc. 128, 69 (2011)
         Al-Ar : Obtained from the ccRepo (grant-hill.group.shef.ac.uk/ccrepo) Feb. 2017
                 D. E. Woon, T. H. Dunning, Jr., J. Chem. Phys. 98, 1358 (1993)
            Ca : Obtained from the Peterson Research Group Website (tyr0.chem.wsu.edu/~kipeters) Feb. 2017
                 J. Koput, K. A. Peterson, J. Phys. Chem. 106, 9595 (2002)
         Sc-Zn : Obtained from the ccRepo (grant-hill.group.shef.ac.uk/ccrepo) Feb. 2017
                 N. B. Balabanov, K. A. Peterson, J. Chem. Phys. 123, 064107 (2005)
                 N. B. Balabanov, K. A. Peterson, J. Chem. Phys. 125, 074110 (2006)
         Ga-Kr : Obtained from the ccRepo (grant-hill.group.shef.ac.uk/ccrepo) Feb. 2017
                 A. K. Wilson, D. E. Woon, K. A. Peterson, T. H. Dunning, Jr., J. Chem. Phys. 110, 7667 (1999)

----- AuxJ basis set information -----
Your calculation utilizes the auxiliary basis: def2/J
   F. Weigend, Phys. Chem. Chem. Phys. 8, 1057 (2006).

================================================================================
                                        WARNINGS
                       Please study these warnings very carefully!
================================================================================

INFO   : Checking CIS options ...

INFO   : the flag for use of the SHARK integral package has been found!

================================================================================
                                       INPUT FILE
================================================================================
NAME = acrolien.293.com
|  1> ! B3LYP cc-pVDZ
|  2> !TightSCF
|  3> %scf
|  4>  ConvForced true
|  5>  convergence tight
|  6>  MaxIter 500
|  7> end
|  8>  
|  9> %tddft 
| 10>  nroots 1
| 11> end
| 12> 
| 13> # 	18898
| 14> * xyz 0 1
| 15> 		C   -1.225090  -0.367281   0.003246
| 16> 		O   -2.182415  -0.418165  -0.718840
| 17> 		C   -0.027433   0.333242  -0.395063
| 18> 		C    1.174711   0.200143   0.331854
| 19> 		H   -1.142225  -1.012893   0.981465
| 20> 		H    0.083554   1.089595  -1.427705
| 21> 		H    1.277362  -0.420080   1.095738
| 22> 		H    2.076098   0.615634   0.121534
| 23> *
| 24> 
| 25>                          ****END OF INPUT****
================================================================================

                       ****************************
                       * Single Point Calculation *
                       ****************************

---------------------------------
CARTESIAN COORDINATES (ANGSTROEM)
---------------------------------
  C     -1.225090   -0.367281    0.003246
  O     -2.182415   -0.418165   -0.718840
  C     -0.027433    0.333242   -0.395063
  C      1.174711    0.200143    0.331854
  H     -1.142225   -1.012893    0.981465
  H      0.083554    1.089595   -1.427705
  H      1.277362   -0.420080    1.095738
  H      2.076098    0.615634    0.121534

----------------------------
CARTESIAN COORDINATES (A.U.)
----------------------------
  NO LB      ZA    FRAG     MASS         X           Y           Z
   0 C     6.0000    0    12.011   -2.315085   -0.694061    0.006134
   1 O     8.0000    0    15.999   -4.124167   -0.790217   -1.358411
   2 C     6.0000    0    12.011   -0.051841    0.629736   -0.746561
   3 C     6.0000    0    12.011    2.219882    0.378215    0.627113
   4 H     1.0000    0     1.008   -2.158492   -1.914090    1.854700
   5 H     1.0000    0     1.008    0.157894    2.059036   -2.697971
   6 H     1.0000    0     1.008    2.413864   -0.793836    2.070645
   7 H     1.0000    0     1.008    3.923257    1.163380    0.229666

--------------------------------
INTERNAL COORDINATES (ANGSTROEM)
--------------------------------
 C      0   0   0     0.000000000000     0.00000000     0.00000000
 O      1   0   0     1.200195204322     0.00000000     0.00000000
 C      1   2   0     1.443525137522   121.08759859     0.00000000
 C      3   1   2     1.411125035362   121.25794364   191.44452387
 H      1   2   3     1.174986755130   122.26562807   189.83124820
 H      3   1   2     1.284810287530   125.38902358     9.42662167
 H      4   3   1     0.989309134187   123.04382569     4.71559641
 H      4   3   1     1.014576659129   127.69445868   177.49128853

---------------------------
INTERNAL COORDINATES (A.U.)
---------------------------
 C      0   0   0     0.000000000000     0.00000000     0.00000000
 O      1   0   0     2.268040243414     0.00000000     0.00000000
 C      1   2   0     2.727867177348   121.08759859     0.00000000
 C      3   1   2     2.666639857555   121.25794364   191.44452387
 H      1   2   3     2.220403178180   122.26562807   189.83124820
 H      3   1   2     2.427939577476   125.38902358     9.42662167
 H      4   3   1     1.869523325400   123.04382569     4.71559641
 H      4   3   1     1.917272027623   127.69445868   177.49128853

---------------------
BASIS SET INFORMATION
---------------------
There are 3 groups of distinct atoms

 Group   1 Type C   : 17s4p1d contracted to 3s2p1d pattern {881/31/1}
 Group   2 Type O   : 17s4p1d contracted to 3s2p1d pattern {881/31/1}
 Group   3 Type H   : 4s1p contracted to 2s1p pattern {31/1}

Atom   0C    basis set group =>   1
Atom   1O    basis set group =>   2
Atom   2C    basis set group =>   1
Atom   3C    basis set group =>   1
Atom   4H    basis set group =>   3
Atom   5H    basis set group =>   3
Atom   6H    basis set group =>   3
Atom   7H    basis set group =>   3
---------------------------------
AUXILIARY/J BASIS SET INFORMATION
---------------------------------
There are 3 groups of distinct atoms

 Group   1 Type C   : 12s5p4d2f1g contracted to 6s4p3d1f1g pattern {711111/2111/211/2/1}
 Group   2 Type O   : 12s5p4d2f1g contracted to 6s4p3d1f1g pattern {711111/2111/211/2/1}
 Group   3 Type H   : 5s2p1d contracted to 3s1p1d pattern {311/2/1}

Atom   0C    basis set group =>   1
Atom   1O    basis set group =>   2
Atom   2C    basis set group =>   1
Atom   3C    basis set group =>   1
Atom   4H    basis set group =>   3
Atom   5H    basis set group =>   3
Atom   6H    basis set group =>   3
Atom   7H    basis set group =>   3
------------------------------------------------------------------------------
                           ORCA GTO INTEGRAL CALCULATION
                           -- RI-GTO INTEGRALS CHOSEN --
------------------------------------------------------------------------------
------------------------------------------------------------------------------
                   ___                                                        
                  /   \      - P O W E R E D   B Y -                         
                 /     \                                                     
                 |  |  |   _    _      __       _____    __    __             
                 |  |  |  | |  | |    /  \     |  _  \  |  |  /  |          
                  \  \/   | |  | |   /    \    | | | |  |  | /  /          
                 / \  \   | |__| |  /  /\  \   | |_| |  |  |/  /          
                |  |  |   |  __  | /  /__\  \  |    /   |      \           
                |  |  |   | |  | | |   __   |  |    \   |  |\   \          
                \     /   | |  | | |  |  |  |  | |\  \  |  | \   \       
                 \___/    |_|  |_| |__|  |__|  |_| \__\ |__|  \__/        
                                                                              
                      - O R C A' S   B I G   F R I E N D -                    
                                      &                                       
                       - I N T E G R A L  F E E D E R -                       
                                                                              
 v1 FN, 2020, v2 2021                                                         
------------------------------------------------------------------------------


Reading SHARK input file acrolien.293.SHARKINP.tmp ... ok
----------------------
SHARK INTEGRAL PACKAGE
----------------------

Number of atoms                             ...      8
Number of basis functions                   ...    100
Number of shells                            ...     60
Maximum angular momentum                    ...      2
Integral batch strategy                     ... SHARK/LIBINT Hybrid
RI-J (if used) integral strategy            ... SPLIT-RIJ (Revised 2003 algorithm where possible)
Printlevel                                  ...      1
Contraction scheme used                     ... PARTIAL GENERAL contraction
Coulomb Range Separation                    ... NOT USED
Exchange Range Separation                   ... NOT USED
Finite Nucleus Model                        ... NOT USED
Auxiliary Coulomb fitting basis             ... AVAILABLE
   # of basis functions in Aux-J            ...    240
   # of shells in Aux-J                     ...     80
   Maximum angular momentum in Aux-J        ...      4
Auxiliary J/K fitting basis                 ... NOT available
Auxiliary Correlation fitting basis         ... NOT available
Auxiliary 'external' fitting basis          ... NOT available
Integral threshold                          ...     2.500000e-11
Primitive cut-off                           ...     2.500000e-12
Primitive pair pre-selection threshold      ...     2.500000e-12

Calculating pre-screening integrals         ... done (  0.0 sec) Dimension = 60
Calculating pre-screening integrals (ORCA)  ... done (  0.2 sec) Dimension = 36
Organizing shell pair data                  ... done (  0.3 sec)
Shell pair information
Total number of shell pairs                 ...      1830
Shell pairs after pre-screening             ...      1519
Total number of primitive shell pairs       ...      2950
Primitive shell pairs kept                  ...      2263
          la=0 lb=0:    716 shell pairs
          la=1 lb=0:    500 shell pairs
          la=1 lb=1:     77 shell pairs
          la=2 lb=0:    169 shell pairs
          la=2 lb=1:     47 shell pairs
          la=2 lb=2:     10 shell pairs

Calculating one electron integrals          ... done (  0.0 sec)
Calculating RI/J V-Matrix + Cholesky decomp.... done (  2.1 sec)
Calculating Nuclear repulsion               ... done (  0.6 sec) ENN=    102.300215409597 Eh

SHARK setup successfully completed in   4.9 seconds

Maximum memory used throughout the entire GTOINT-calculation: 14.2 MB
-------------------------------------------------------------------------------
                                 ORCA SCF
-------------------------------------------------------------------------------

------------
SCF SETTINGS
------------
Hamiltonian:
 Density Functional     Method          .... DFT(GTOs)
 Exchange Functional    Exchange        .... B88
   X-Alpha parameter    XAlpha          ....  0.666667
   Becke's b parameter  XBeta           ....  0.004200
 Correlation Functional Correlation     .... LYP
 LDA part of GGA corr.  LDAOpt          .... VWN-5
 Gradients option       PostSCFGGA      .... off
 Hybrid DFT is turned on
   Fraction HF Exchange ScalHFX         ....  0.200000
   Scaling of DF-GGA-X  ScalDFX         ....  0.720000
   Scaling of DF-GGA-C  ScalDFC         ....  0.810000
   Scaling of DF-LDA-C  ScalLDAC        ....  1.000000
   Perturbative correction              ....  0.000000
   Density functional embedding theory  .... OFF
   NL short-range parameter             ....  4.800000
 RI-approximation to the Coulomb term is turned on
   Number of AuxJ basis functions       .... 240
   RIJ-COSX (HFX calculated with COS-X)).... on


General Settings:
 Integral files         IntName         .... acrolien.293
 Hartree-Fock type      HFTyp           .... RHF
 Total Charge           Charge          ....    0
 Multiplicity           Mult            ....    1
 Number of Electrons    NEL             ....   30
 Basis Dimension        Dim             ....   76
 Nuclear Repulsion      ENuc            ....    102.3002154096 Eh

Convergence Acceleration:
 DIIS                   CNVDIIS         .... on
   Start iteration      DIISMaxIt       ....    12
   Startup error        DIISStart       ....  0.200000
   # of expansion vecs  DIISMaxEq       ....     5
   Bias factor          DIISBfac        ....   1.050
   Max. coefficient     DIISMaxC        ....  10.000
 Trust-Rad. Augm. Hess. CNVTRAH         .... auto
   Auto Start mean grad. ratio tolernc. ....  1.125000
   Auto Start start iteration           ....    20
   Auto Start num. interpolation iter.  ....    10
   Max. Number of Micro iterations      ....    16
   Max. Number of Macro iterations      .... Maxiter - #DIIS iter
   Number of Davidson start vectors     ....     2
   Converg. threshold I  (grad. norm)   ....   1.000e-05
   Converg. threshold II (energy diff.) ....   1.000e-08
   Grad. Scal. Fac. for Micro threshold ....   0.100
   Minimum threshold for Micro iter.    ....   0.010
   NR start threshold (gradient norm)   ....   0.001
   Initial trust radius                 ....   0.400
   Minimum AH scaling param. (alpha)    ....   1.000
   Maximum AH scaling param. (alpha)    .... 1000.000
   Orbital update algorithm             .... Taylor
   White noise on init. David. guess    .... on
   Maximum white noise                  ....   0.010
   Quad. conv. algorithm                .... NR
 SOSCF                  CNVSOSCF        .... on
   Start iteration      SOSCFMaxIt      ....   150
   Startup grad/error   SOSCFStart      ....  0.003300
 Level Shifting         CNVShift        .... on
   Level shift para.    LevelShift      ....    0.2500
   Turn off err/grad.   ShiftErr        ....    0.0010
 Zerner damping         CNVZerner       .... off
 Static damping         CNVDamp         .... on
   Fraction old density DampFac         ....    0.7000
   Max. Damping (<1)    DampMax         ....    0.9800
   Min. Damping (>=0)   DampMin         ....    0.0000
   Turn off err/grad.   DampErr         ....    0.1000
 Fernandez-Rico         CNVRico         .... off

SCF Procedure:
 Maximum # iterations   MaxIter         ....   500
 SCF integral mode      SCFMode         .... Direct
   Integral package                     .... SHARK and LIBINT hybrid scheme
 Reset frequency        DirectResetFreq ....    20
 Integral Threshold     Thresh          ....  2.500e-11 Eh
 Primitive CutOff       TCut            ....  2.500e-12 Eh

Convergence Tolerance:
 Convergence Check Mode ConvCheckMode   .... Total+1el-Energy
 Convergence forced     ConvForced      .... 1
 Energy Change          TolE            ....  1.000e-08 Eh
 1-El. energy change                    ....  1.000e-05 Eh
 Orbital Gradient       TolG            ....  1.000e-05
 Orbital Rotation angle TolX            ....  1.000e-05
 DIIS Error             TolErr          ....  5.000e-07


Diagonalization of the overlap matrix:
Smallest eigenvalue                        ... 3.022e-03
Time for diagonalization                   ...    0.002 sec
Threshold for overlap eigenvalues          ... 1.000e-08
Number of eigenvalues below threshold      ... 0
Time for construction of square roots      ...    0.001 sec
Total time needed                          ...    0.003 sec

Time for model grid setup =    1.077 sec

------------------------------
INITIAL GUESS: MODEL POTENTIAL
------------------------------
Loading Hartree-Fock densities                     ... done
Calculating cut-offs                               ... done
Initializing the effective Hamiltonian             ... done
Setting up the integral package (SHARK)            ... done
Starting the Coulomb interaction                   ... done (   1.0 sec)
Reading the grid                                   ... done
Mapping shells                                     ... done
Starting the XC term evaluation                    ... done (   0.1 sec)
  promolecular density results
     # of electrons  =     29.998671296
     EX              =    -24.727258157
     EC              =     -0.994079991
     EX+EC           =    -25.721338148
Transforming the Hamiltonian                       ... done (   0.0 sec)
Diagonalizing the Hamiltonian                      ... done (   0.0 sec)
Back transforming the eigenvectors                 ... done (   0.0 sec)
Now organizing SCF variables                       ... done
                      ------------------
                      INITIAL GUESS DONE (   2.9 sec)
                      ------------------
-------------------
DFT GRID GENERATION
-------------------

General Integration Accuracy     IntAcc      ... 4.388
Radial Grid Type                 RadialGrid  ... OptM3 with GC (2021)
Angular Grid (max. ang.)         AngularGrid ... 4 (Lebedev-302)
Angular grid pruning method      GridPruning ... 4 (adaptive)
Weight generation scheme         WeightScheme... Becke
Basis function cutoff            BFCut       ... 1.0000e-11
Integration weight cutoff        WCut        ... 1.0000e-14
Angular grids for H and He will be reduced by one unit
Partially contracted basis set               ... off
Rotationally invariant grid construction     ... off

Total number of grid points                  ...    37442
Total number of batches                      ...      589
Average number of points per batch           ...       63
Average number of grid points per atom       ...     4680
Time for grid setup =    1.605 sec

--------------------
COSX GRID GENERATION
--------------------

GRIDX 1
-------
General Integration Accuracy     IntAcc      ... 3.816
Radial Grid Type                 RadialGrid  ... OptM3 with GC (2021)
Angular Grid (max. ang.)         AngularGrid ... 1 (Lebedev-50)
Angular grid pruning method      GridPruning ... 4 (adaptive)
Weight generation scheme         WeightScheme... Becke
Basis function cutoff            BFCut       ... 1.0000e-11
Integration weight cutoff        WCut        ... 1.0000e-14
Angular grids for H and He will be reduced by one unit
Partially contracted basis set               ... on
Rotationally invariant grid construction     ... off

Total number of grid points                  ...     4805
Total number of batches                      ...       79
Average number of points per batch           ...       60
Average number of grid points per atom       ...      601
UseSFitting                                  ... on

GRIDX 2
-------
General Integration Accuracy     IntAcc      ... 4.020
Radial Grid Type                 RadialGrid  ... OptM3 with GC (2021)
Angular Grid (max. ang.)         AngularGrid ... 2 (Lebedev-110)
Angular grid pruning method      GridPruning ... 4 (adaptive)
Weight generation scheme         WeightScheme... Becke
Basis function cutoff            BFCut       ... 1.0000e-11
Integration weight cutoff        WCut        ... 1.0000e-14
Angular grids for H and He will be reduced by one unit
Partially contracted basis set               ... on
Rotationally invariant grid construction     ... off

Total number of grid points                  ...    10561
Total number of batches                      ...      170
Average number of points per batch           ...       62
Average number of grid points per atom       ...     1320
UseSFitting                                  ... on

GRIDX 3
-------
General Integration Accuracy     IntAcc      ... 4.338
Radial Grid Type                 RadialGrid  ... OptM3 with GC (2021)
Angular Grid (max. ang.)         AngularGrid ... 3 (Lebedev-194)
Angular grid pruning method      GridPruning ... 4 (adaptive)
Weight generation scheme         WeightScheme... Becke
Basis function cutoff            BFCut       ... 1.0000e-11
Integration weight cutoff        WCut        ... 1.0000e-14
Angular grids for H and He will be reduced by one unit
Partially contracted basis set               ... on
Rotationally invariant grid construction     ... off

Total number of grid points                  ...    23361
Total number of batches                      ...      370
Average number of points per batch           ...       63
Average number of grid points per atom       ...     2920
UseSFitting                                  ... on

Time for X-Grid setup             =    7.809 sec

 re-compute Schwartz prescreening matrix in partically contracted basis (1) ...done (   1.851 sec)
--------------
SCF ITERATIONS
--------------
ITER       Energy         Delta-E        Max-DP      RMS-DP      [F,P]     Damp
               ***  Starting incremental Fock matrix formation  ***
  0   -191.6428047862   0.000000000000 0.10179310  0.00404044  0.2526931 0.7000
  1   -191.7040134041  -0.061208617916 0.06106778  0.00256443  0.0941111 0.7000
                               ***Turning on DIIS***
  2   -191.7250141718  -0.021000767695 0.05598867  0.00342497  0.0340271 0.0000
  3   -191.7624373025  -0.037423130752 0.05259310  0.00193072  0.0440895 0.0000
  4   -191.7686448510  -0.006207548457 0.00931209  0.00050828  0.0161980 0.0000
                      *** Initiating the SOSCF procedure ***
                           *** Shutting down DIIS ***
                      *** Re-Reading the Fockian *** 
                      *** Removing any level shift *** 
ITER      Energy       Delta-E        Grad      Rot      Max-DP    RMS-DP
  5   -191.76958648  -0.0009416304  0.000795  0.000795  0.002952  0.000144
               *** Restarting incremental Fock matrix formation ***
  6   -191.76961165  -0.0000251706  0.000446  0.002137  0.001723  0.000099
  7   -191.76961049   0.0000011656  0.000774  0.001214  0.001174  0.000053
  8   -191.76961435  -0.0000038659  0.000147  0.000274  0.000638  0.000036
  9   -191.76961428   0.0000000689  0.000145  0.000134  0.000200  0.000014
 10   -191.76961476  -0.0000004736  0.000018  0.000048  0.000073  0.000004
 11   -191.76961475   0.0000000092  0.000037  0.000037  0.000046  0.000002
 12   -191.76961476  -0.0000000152  0.000005  0.000010  0.000027  0.000001
 13   -191.76961476  -0.0000000005  0.000004  0.000005  0.000012  0.000001
                 **** Energy Check signals convergence ****
              ***Rediagonalizing the Fockian in SOSCF/NRSCF***

               *****************************************************
               *                     SUCCESS                       *
               *           SCF CONVERGED AFTER  14 CYCLES          *
               *****************************************************

Old exchange energy                            =     -5.018519943 Eh
New exchange energy                            =     -5.018514914 Eh
Exchange energy change after final integration =      0.000005029 Eh
Total energy after final integration           =   -191.769609735 Eh
Final COS-X integration done in                =     1.472 sec

----------------
TOTAL SCF ENERGY
----------------

Total Energy       :         -191.76960973 Eh           -5218.31637 eV

Components:
Nuclear Repulsion  :          102.30021541 Eh            2783.73038 eV
Electronic Energy  :         -294.06982514 Eh           -8002.04676 eV
One Electron Energy:         -461.72003369 Eh          -12564.04086 eV
Two Electron Energy:          167.65020855 Eh            4561.99410 eV
Max COSX asymmetry :            0.00000130 Eh               0.00004 eV

Virial components:
Potential Energy   :         -382.34110957 Eh          -10404.03052 eV
Kinetic Energy     :          190.57149983 Eh            5185.71415 eV
Virial Ratio       :            2.00628693


DFT components:
N(Alpha)           :       14.999997117145 electrons
N(Beta)            :       14.999997117145 electrons
N(Total)           :       29.999994234291 electrons
E(X)               :      -19.958337743424 Eh       
E(C)               :       -1.181214066698 Eh       
E(XC)              :      -21.139551810122 Eh       
DFET-embed. en.    :        0.000000000000 Eh       

---------------
SCF CONVERGENCE
---------------

  Last Energy change         ...   -4.6683e-10  Tolerance :   1.0000e-08
  Last MAX-Density change    ...    1.5305e-15  Tolerance :   1.0000e-07
  Last RMS-Density change    ...    5.3872e-17  Tolerance :   5.0000e-09
  Last Orbital Gradient      ...    1.5212e-07  Tolerance :   1.0000e-05
  Last Orbital Rotation      ...    2.4189e-07  Tolerance :   1.0000e-05

             **** THE GBW FILE WAS UPDATED (acrolien.293.gbw) ****
             **** DENSITY acrolien.293.scfp WAS UPDATED ****
             **** ENERGY FILE WAS UPDATED (acrolien.293.en.tmp) ****
             **** THE GBW FILE WAS UPDATED (acrolien.293.gbw) ****
             **** DENSITY acrolien.293.scfp WAS UPDATED ****
----------------
ORBITAL ENERGIES
----------------

  NO   OCC          E(Eh)            E(eV) 
   0   2.0000     -19.137732      -520.7642 
   1   2.0000     -10.280126      -279.7364 
   2   2.0000     -10.231420      -278.4111 
   3   2.0000     -10.212302      -277.8909 
   4   2.0000      -1.053332       -28.6626 
   5   2.0000      -0.792455       -21.5638 
   6   2.0000      -0.664400       -18.0792 
   7   2.0000      -0.556690       -15.1483 
   8   2.0000      -0.484016       -13.1707 
   9   2.0000      -0.469928       -12.7874 
  10   2.0000      -0.419562       -11.4169 
  11   2.0000      -0.404115       -10.9965 
  12   2.0000      -0.376494       -10.2449 
  13   2.0000      -0.283971        -7.7272 
  14   2.0000      -0.257550        -7.0083 
  15   0.0000      -0.074892        -2.0379 
  16   0.0000       0.045238         1.2310 
  17   0.0000       0.047651         1.2966 
  18   0.0000       0.081167         2.2087 
  19   0.0000       0.118244         3.2176 
  20   0.0000       0.147449         4.0123 
  21   0.0000       0.239943         6.5292 
  22   0.0000       0.279941         7.6176 
  23   0.0000       0.320947         8.7334 
  24   0.0000       0.425092        11.5673 
  25   0.0000       0.442793        12.0490 
  26   0.0000       0.448665        12.2088 
  27   0.0000       0.491350        13.3703 
  28   0.0000       0.514362        13.9965 
  29   0.0000       0.540520        14.7083 
  30   0.0000       0.555958        15.1284 
  31   0.0000       0.621615        16.9150 
  32   0.0000       0.628592        17.1049 
  33   0.0000       0.638011        17.3612 
  34   0.0000       0.684551        18.6276 
  35   0.0000       0.754002        20.5174 
  36   0.0000       0.777683        21.1618 
  37   0.0000       0.895859        24.3776 
  38   0.0000       0.904872        24.6228 
  39   0.0000       0.918144        24.9840 
  40   0.0000       0.938515        25.5383 
  41   0.0000       1.000548        27.2263 
  42   0.0000       1.004892        27.3445 
  43   0.0000       1.045547        28.4508 
  44   0.0000       1.062459        28.9110 
  45   0.0000       1.138497        30.9801 
  46   0.0000       1.176059        32.0022 
  47   0.0000       1.350655        36.7532 
  48   0.0000       1.396374        37.9973 
  49   0.0000       1.457368        39.6570 
  50   0.0000       1.473268        40.0897 
  51   0.0000       1.541289        41.9406 
  52   0.0000       1.566714        42.6325 
  53   0.0000       1.583632        43.0928 
  54   0.0000       1.614661        43.9372 
  55   0.0000       1.642288        44.6889 
  56   0.0000       1.681532        45.7568 
  57   0.0000       1.740260        47.3549 
  58   0.0000       1.776514        48.3414 
  59   0.0000       1.860119        50.6164 
  60   0.0000       1.903677        51.8017 
  61   0.0000       1.957719        53.2722 
  62   0.0000       1.981402        53.9167 
  63   0.0000       1.991633        54.1951 
  64   0.0000       2.130434        57.9720 
  65   0.0000       2.219813        60.4042 
  66   0.0000       2.317746        63.0691 
  67   0.0000       2.438826        66.3638 
  68   0.0000       2.557226        69.5856 
  69   0.0000       2.693527        73.2946 
  70   0.0000       2.736488        74.4636 
  71   0.0000       2.783930        75.7546 
  72   0.0000       3.003082        81.7180 
  73   0.0000       3.091976        84.1370 
  74   0.0000       3.406098        92.6846 
  75   0.0000       3.465837        94.3102 

                    ********************************
                    * MULLIKEN POPULATION ANALYSIS *
                    ********************************

-----------------------
MULLIKEN ATOMIC CHARGES
-----------------------
   0 C :    0.178140
   1 O :   -0.182986
   2 C :   -0.156424
   3 C :    0.120103
   4 H :   -0.011864
   5 H :    0.053968
   6 H :   -0.010791
   7 H :    0.009854
Sum of atomic charges:    0.0000000

--------------------------------
MULLIKEN REDUCED ORBITAL CHARGES
--------------------------------
  0 C s       :     3.111276  s :     3.111276
      pz      :     0.870252  p :     2.563036
      px      :     0.861083
      py      :     0.831702
      dz2     :     0.037447  d :     0.147548
      dxz     :     0.032260
      dyz     :     0.018695
      dx2y2   :     0.025879
      dxy     :     0.033267
  1 O s       :     3.740460  s :     3.740460
      pz      :     1.502975  p :     4.423346
      px      :     1.454414
      py      :     1.465957
      dz2     :     0.003328  d :     0.019180
      dxz     :     0.006582
      dyz     :     0.001993
      dx2y2   :     0.003921
      dxy     :     0.003357
  2 C s       :     3.270059  s :     3.270059
      pz      :     0.941020  p :     2.831223
      px      :     0.940538
      py      :     0.949664
      dz2     :     0.010508  d :     0.055142
      dxz     :     0.014270
      dyz     :     0.007203
      dx2y2   :     0.010953
      dxy     :     0.012209
  3 C s       :     3.015422  s :     3.015422
      pz      :     0.939688  p :     2.824357
      px      :     0.958496
      py      :     0.926174
      dz2     :     0.008730  d :     0.040118
      dxz     :     0.007678
      dyz     :     0.005916
      dx2y2   :     0.008901
      dxy     :     0.008893
  4 H s       :     0.987810  s :     0.987810
      pz      :     0.013532  p :     0.024054
      px      :     0.002671
      py      :     0.007850
  5 H s       :     0.925117  s :     0.925117
      pz      :     0.011215  p :     0.020915
      px      :     0.002295
      py      :     0.007406
  6 H s       :     0.975592  s :     0.975592
      pz      :     0.015027  p :     0.035199
      px      :     0.007638
      py      :     0.012534
  7 H s       :     0.956062  s :     0.956062
      pz      :     0.007639  p :     0.034085
      px      :     0.017006
      py      :     0.009440


                     *******************************
                     * LOEWDIN POPULATION ANALYSIS *
                     *******************************

----------------------
LOEWDIN ATOMIC CHARGES
----------------------
   0 C :   -0.070410
   1 O :    0.011403
   2 C :   -0.059345
   3 C :    0.040299
   4 H :    0.002575
   5 H :    0.063877
   6 H :   -0.001091
   7 H :    0.012691

-------------------------------
LOEWDIN REDUCED ORBITAL CHARGES
-------------------------------
  0 C s       :     2.874221  s :     2.874221
      pz      :     0.959545  p :     2.801709
      px      :     0.977660
      py      :     0.864505
      dz2     :     0.095306  d :     0.394480
      dxz     :     0.093917
      dyz     :     0.046094
      dx2y2   :     0.072089
      dxy     :     0.087073
  1 O s       :     3.487512  s :     3.487512
      pz      :     1.529497  p :     4.467920
      px      :     1.503423
      py      :     1.435000
      dz2     :     0.005102  d :     0.033164
      dxz     :     0.013537
      dyz     :     0.002619
      dx2y2   :     0.007305
      dxy     :     0.004601
  2 C s       :     2.908063  s :     2.908063
      pz      :     0.983257  p :     2.985992
      px      :     1.041160
      py      :     0.961575
      dz2     :     0.027741  d :     0.165289
      dxz     :     0.044897
      dyz     :     0.020389
      dx2y2   :     0.036523
      dxy     :     0.035739
  3 C s       :     2.818274  s :     2.818274
      pz      :     1.002031  p :     3.005412
      px      :     1.043483
      py      :     0.959897
      dz2     :     0.024983  d :     0.136015
      dxz     :     0.029883
      dyz     :     0.022495
      dx2y2   :     0.030859
      dxy     :     0.027795
  4 H s       :     0.932682  s :     0.932682
      pz      :     0.036360  p :     0.064744
      px      :     0.007353
      py      :     0.021031
  5 H s       :     0.887903  s :     0.887903
      pz      :     0.025072  p :     0.048220
      px      :     0.005996
      py      :     0.017153
  6 H s       :     0.892153  s :     0.892153
      pz      :     0.045490  p :     0.108937
      px      :     0.024430
      py      :     0.039017
  7 H s       :     0.887031  s :     0.887031
      pz      :     0.023760  p :     0.100278
      px      :     0.048730
      py      :     0.027787


                      *****************************
                      * MAYER POPULATION ANALYSIS *
                      *****************************

  NA   - Mulliken gross atomic population
  ZA   - Total nuclear charge
  QA   - Mulliken gross atomic charge
  VA   - Mayer's total valence
  BVA  - Mayer's bonded valence
  FA   - Mayer's free valence

  ATOM       NA         ZA         QA         VA         BVA        FA
  0 C      5.8219     6.0000     0.1781     4.1726     4.1726     0.0000
  1 O      8.1830     8.0000    -0.1830     2.3415     2.3415     0.0000
  2 C      6.1564     6.0000    -0.1564     3.9621     3.9621    -0.0000
  3 C      5.8799     6.0000     0.1201     3.9591     3.9591     0.0000
  4 H      1.0119     1.0000    -0.0119     0.9712     0.9712     0.0000
  5 H      0.9460     1.0000     0.0540     0.9841     0.9841    -0.0000
  6 H      1.0108     1.0000    -0.0108     0.9837     0.9837     0.0000
  7 H      0.9901     1.0000     0.0099     0.9736     0.9736     0.0000

  Mayer bond orders larger than 0.100000
B(  0-C ,  1-O ) :   2.1537 B(  0-C ,  2-C ) :   1.0728 B(  0-C ,  4-H ) :   0.9068 
B(  1-O ,  3-C ) :   0.1140 B(  2-C ,  3-C ) :   1.8920 B(  2-C ,  5-H ) :   0.9338 
B(  3-C ,  6-H ) :   0.9562 B(  3-C ,  7-H ) :   0.9570 

-------
TIMINGS
-------

Total SCF time: 0 days 0 hours 3 min 5 sec 

Total time                  ....     185.795 sec
Sum of individual times     ....     138.027 sec  ( 74.3%)

Fock matrix formation       ....     125.611 sec  ( 67.6%)
  Split-RI-J                ....       0.954 sec  (  0.8% of F)
  Chain of spheres X        ....       9.395 sec  (  7.5% of F)
  XC integration            ....      47.500 sec  ( 37.8% of F)
    Basis function eval.    ....       1.844 sec  (  3.9% of XC)
    Density eval.           ....       0.811 sec  (  1.7% of XC)
    XC-Functional eval.     ....       0.569 sec  (  1.2% of XC)
    XC-Potential eval.      ....       0.640 sec  (  1.3% of XC)
Diagonalization             ....       0.007 sec  (  0.0%)
Density matrix formation    ....       0.001 sec  (  0.0%)
Population analysis         ....       0.006 sec  (  0.0%)
Initial guess               ....       1.822 sec  (  1.0%)
Orbital Transformation      ....       0.000 sec  (  0.0%)
Orbital Orthonormalization  ....       0.000 sec  (  0.0%)
DIIS solution               ....       0.051 sec  (  0.0%)
SOSCF solution              ....       0.038 sec  (  0.0%)
Grid generation             ....      10.491 sec  (  5.6%)

Maximum memory used throughout the entire SCF-calculation: 51.6 MB
------------------------------------------------------------------------------
                        ORCA TD-DFT/TDA CALCULATION
------------------------------------------------------------------------------

Input orbitals are from        ... acrolien.293.gbw
CI-vector output               ... acrolien.293.cis
Tamm-Dancoff approximation     ... operative
CIS-Integral strategy          ... AO-integrals
Integral handling              ... AO integral Direct
Max. core memory used          ... 512 MB
Reference state                ... RHF
Generation of triplets         ... off
Follow IRoot                   ... off
Number of operators            ... 1
Orbital ranges used for CIS calculation:
 Operator 0:  Orbitals   4... 14  to  15... 75
XAS localization array:
 Operator 0:  Orbitals  -1... -1

-------------------
XC-INTEGRATION GRID
-------------------

General Integration Accuracy     IntAcc      ... 3.467
Radial Grid Type                 RadialGrid  ... OptM3 with GC (2021)
Angular Grid (max. ang.)         AngularGrid ... 1 (Lebedev-50)
Angular grid pruning method      GridPruning ... 4 (adaptive)
Weight generation scheme         WeightScheme... Becke
Basis function cutoff            BFCut       ... 1.0000e-11
Integration weight cutoff        WCut        ... 1.0000e-14
Angular grids for H and He will be reduced by one unit
Partially contracted basis set               ... off
Rotationally invariant grid construction     ... off

Total number of grid points                  ...     5495
Total number of batches                      ...       91
Average number of points per batch           ...       60
Average number of grid points per atom       ...      687

---------------------
COSX-INTEGRATION GRID
---------------------

General Integration Accuracy     IntAcc      ... 3.067
Radial Grid Type                 RadialGrid  ... OptM3 with GC (2021)
Angular Grid (max. ang.)         AngularGrid ... 1 (Lebedev-50)
Angular grid pruning method      GridPruning ... 4 (adaptive)
Weight generation scheme         WeightScheme... Becke
Basis function cutoff            BFCut       ... 1.0000e-11
Integration weight cutoff        WCut        ... 1.0000e-14
Angular grids for H and He will be reduced by one unit
Partially contracted basis set               ... on
Rotationally invariant grid construction     ... off

Total number of grid points                  ...     2514
Total number of batches                      ...       45
Average number of points per batch           ...       55
Average number of grid points per atom       ...      314

---------------
TD-DFT XC SETUP
---------------

DFT calculation                         ... on
Name of the grid file                   ... acrolien.293.grid_cis.tmp
Exchange functional (TD-DFT)            ... B88
   X-Alpha parameter    XAlpha (TD-DFT) ...  0.666667
   Becke's b parameter  XBeta (TD-DFT)  ...  0.004200
Correlation functional (TD-DFT)         ... LYP
 LDA part of GGA corr.  LDAOpt (TD-DFT) ... VWN-5
Hybrid DFT                              ... on
   Exchange mixing (TD-DFT)             ...  0.200
   GGA exch. scaling (TD-DFT)           ...  0.720
   GGA corr. scaling (TD-DFT)           ...  0.810

Building densities             ... done
Calculating rho(r) on the grid ... done
Building xc-kernel on the grid ... done
                    *** TD-DFT CALCULATION INITIALIZED ***

------------------------
DAVIDSON-DIAGONALIZATION
------------------------

Dimension of the eigenvalue problem            ...    671
Number of roots to be determined               ...      1
Maximum size of the expansion space            ...     10
Maximum number of iterations                   ...    100
Convergence tolerance for the residual         ...    2.500e-07
Convergence tolerance for the energies         ...    2.500e-07
Orthogonality tolerance                        ...    1.000e-14
Level Shift                                    ...    0.000e+00
Constructing the preconditioner                ... o.k.
Building the initial guess                     ... o.k.
Number of trial vectors determined             ...     10


                       ****Iteration    0****

   Memory handling for direct AO based CIS:
   Memory per vector needed      ...     1 MB
   Memory needed                 ...     0 MB
   Memory available              ...   512 MB
   Number of vectors per batch   ...   512
   Number of batches             ...     1
   Time for densities:            0.000
   Time for RI-J (Direct):        0.070
   Time for K (COSX):             0.237
   Time for XC-Integration:       0.081
   Time for Sigma-Completion:     0.000
   Size of expansion space: 3
   Lowest Energy          :     0.130232147921
   Maximum Energy change  :     0.130232147921 (vector 0)
   Maximum residual norm  :     0.001462110165

                       ****Iteration    1****
   Time for densities:            0.000
   Time for RI-J (Direct):        0.053
   Time for K (COSX):             0.804
   Time for XC-Integration:       0.041
   Time for Sigma-Completion:     0.000
   Size of expansion space: 4
   Lowest Energy          :     0.127257774796
   Maximum Energy change  :     0.002974373125 (vector 0)
   Maximum residual norm  :     0.000295508572

                       ****Iteration    2****
   Time for densities:            0.000
   Time for RI-J (Direct):        0.053
   Time for K (COSX):             0.617
   Time for XC-Integration:       0.042
   Time for Sigma-Completion:     0.000
   Size of expansion space: 5
   Lowest Energy          :     0.126955812322
   Maximum Energy change  :     0.000301962474 (vector 0)
   Maximum residual norm  :     0.000052518376

                       ****Iteration    3****
   Time for densities:            0.000
   Time for RI-J (Direct):        0.053
   Time for K (COSX):             0.313
   Time for XC-Integration:       0.042
   Time for Sigma-Completion:     0.000
   Size of expansion space: 6
   Lowest Energy          :     0.126902821898
   Maximum Energy change  :     0.000052990424 (vector 0)
   Maximum residual norm  :     0.000001934435

                       ****Iteration    4****
   Time for densities:            0.000
   Time for RI-J (Direct):        0.053
   Time for K (COSX):             0.244
   Time for XC-Integration:       0.042
   Time for Sigma-Completion:     0.000
   Size of expansion space: 7
   Lowest Energy          :     0.126900537421
   Maximum Energy change  :     0.000002284477 (vector 0)
   Maximum residual norm  :     0.000000099004

      *** CONVERGENCE OF RESIDUAL NORM REACHED ***

Storing the converged CI vectors               ... acrolien.293.cis1

                 *** DAVIDSON DONE ***

Total time for solving the CIS problem:     4.183sec

------------------------------------
TD-DFT/TDA EXCITED STATES (SINGLETS)
------------------------------------

the weight of the individual excitations are printed if larger than 1.0e-02

STATE  1:  E=   0.126901 au      3.453 eV    27851.4 cm**-1 <S**2> =   0.000000
    14a ->  15a  :     0.974526 (c= -0.98718091)
    14a ->  17a  :     0.016710 (c=  0.12926751)


-----------------------------
TD-DFT/TDA-EXCITATION SPECTRA
-----------------------------

Center of mass = ( -1.1304, -0.1490, -0.3857)
Calculating the Dipole integrals                  ... done
Transforming integrals                            ... done
Calculating the Linear Momentum integrals         ... done
Transforming integrals                            ... done
Calculating angular momentum integrals            ... done
Transforming integrals                            ... done

-----------------------------------------------------------------------------
         ABSORPTION SPECTRUM VIA TRANSITION ELECTRIC DIPOLE MOMENTS
-----------------------------------------------------------------------------
State   Energy    Wavelength  fosc         T2        TX        TY        TZ  
        (cm-1)      (nm)                 (au**2)    (au)      (au)      (au) 
-----------------------------------------------------------------------------
   1   27851.4    359.0   0.000157961   0.00187   0.03978  -0.00792   0.01489

-----------------------------------------------------------------------------
         ABSORPTION SPECTRUM VIA TRANSITION VELOCITY DIPOLE MOMENTS
-----------------------------------------------------------------------------
State   Energy    Wavelength   fosc        P2         PX        PY        PZ  
        (cm-1)      (nm)                 (au**2)     (au)      (au)      (au) 
-----------------------------------------------------------------------------
   1   27851.4    359.0   0.001334620   0.00025   0.00305   0.00914   0.01270

-------------------------------------------------------------------
                             CD SPECTRUM
-------------------------------------------------------------------
State  Energy     Wavelength     R         MX        MY        MZ   
       (cm-1)       (nm)     (1e40*cgs)   (au)      (au)      (au)  
-------------------------------------------------------------------
   1   27851.4    359.0      7.06042   0.32846   0.06874   0.16470

-------------------------------------------------------------------
         CD SPECTRUM VIA TRANSITION VELOCITY DIPOLE MOMENTS        
-------------------------------------------------------------------
State  Energy     Wavelength     R         MX        MY        MZ   
       (cm-1)       (nm)     (1e40*cgs)   (au)      (au)      (au)  
-------------------------------------------------------------------
   1   27851.4    359.0     13.82062   0.32846   0.06874   0.16470

Total run time:        9.869 sec

           *** ORCA-CIS/TD-DFT FINISHED WITHOUT ERROR ***

Maximum memory used throughout the entire CIS-calculation: 48.6 MB

-----------------------
CIS/TD-DFT TOTAL ENERGY
-----------------------

    E(SCF)  =   -191.769609735 Eh
    DE(CIS) =      0.126900537 Eh (Root  1)
    ----------------------------- ---------
    E(tot)  =   -191.642709197 Eh


-------------------------   --------------------
FINAL SINGLE POINT ENERGY      -191.642709197478
-------------------------   --------------------


                            ***************************************
                            *     ORCA property calculations      *
                            ***************************************

                                    ---------------------
                                    Active property flags
                                    ---------------------
   (+) Dipole Moment


------------------------------------------------------------------------------
                       ORCA ELECTRIC PROPERTIES CALCULATION
------------------------------------------------------------------------------

Dipole Moment Calculation                       ... on
Quadrupole Moment Calculation                   ... off
Polarizability Calculation                      ... off
GBWName                                         ... acrolien.293.gbw
Electron density                                ... acrolien.293.scfp
The origin for moment calculation is the CENTER OF MASS  = (-1.130449, -0.149007 -0.385729)

-------------
DIPOLE MOMENT
-------------
                                X             Y             Z
Electronic contribution:     -3.29325      -0.41531      -1.00823
Nuclear contribution   :      4.37438       0.54631       1.48175
                        -----------------------------------------
Total Dipole Moment    :      1.08114       0.13100       0.47352
                        -----------------------------------------
Magnitude (a.u.)       :      1.18753
Magnitude (Debye)      :      3.01847



--------------------
Rotational spectrum 
--------------------
 
Rotational constants in cm-1:     1.478151     0.154777     0.140584 
Rotational constants in MHz : 44313.848220  4640.111950  4214.593208 

 Dipole components along the rotational axes: 
x,y,z [a.u.] :    -1.164569     0.230972    -0.025850 
x,y,z [Debye]:    -2.960100     0.587083    -0.065705 

 

Timings for individual modules:

Sum of individual times         ...      202.443 sec (=   3.374 min)
GTO integral calculation        ...        6.739 sec (=   0.112 min)   3.3 %
SCF iterations                  ...      185.806 sec (=   3.097 min)  91.8 %
CIS module                      ...        9.898 sec (=   0.165 min)   4.9 %
                             ****ORCA TERMINATED NORMALLY****
TOTAL RUN TIME: 0 days 0 hours 3 minutes 23 seconds 425 msec
