
                                 *****************
                                 * O   R   C   A *
                                 *****************

                                            #,                                       
                                            ###                                      
                                            ####                                     
                                            #####                                    
                                            ######                                   
                                           ########,                                 
                                     ,,################,,,,,                         
                               ,,#################################,,                 
                          ,,##########################################,,             
                       ,#########################################, ''#####,          
                    ,#############################################,,   '####,        
                  ,##################################################,,,,####,       
                ,###########''''           ''''###############################       
              ,#####''   ,,,,##########,,,,          '''####'''          '####       
            ,##' ,,,,###########################,,,                        '##       
           ' ,,###''''                  '''############,,,                           
         ,,##''                                '''############,,,,        ,,,,,,###''
      ,#''                                            '''#######################'''  
     '                                                          ''''####''''         
             ,#######,   #######,   ,#######,      ##                                
            ,#'     '#,  ##    ##  ,#'     '#,    #''#        ######   ,####,        
            ##       ##  ##   ,#'  ##            #'  '#       #        #'  '#        
            ##       ##  #######   ##           ,######,      #####,   #    #        
            '#,     ,#'  ##    ##  '#,     ,#' ,#      #,         ##   #,  ,#        
             '#######'   ##     ##  '#######'  #'      '#     #####' # '####'        



                  #######################################################
                  #                        -***-                        #
                  #          Department of theory and spectroscopy      #
                  #    Directorship and core code : Frank Neese         #
                  #        Max Planck Institute fuer Kohlenforschung    #
                  #                Kaiser Wilhelm Platz 1               #
                  #                 D-45470 Muelheim/Ruhr               #
                  #                      Germany                        #
                  #                                                     #
                  #                  All rights reserved                #
                  #                        -***-                        #
                  #######################################################


                         Program Version 5.0.3 -  RELEASE  -


 With contributions from (in alphabetic order):
   Daniel Aravena         : Magnetic Suceptibility
   Michael Atanasov       : Ab Initio Ligand Field Theory (pilot matlab implementation)
   Alexander A. Auer      : GIAO ZORA, VPT2 properties, NMR spectrum
   Ute Becker             : Parallelization
   Giovanni Bistoni       : ED, misc. LED, open-shell LED, HFLD
   Martin Brehm           : Molecular dynamics
   Dmytro Bykov           : SCF Hessian
   Vijay G. Chilkuri      : MRCI spin determinant printing, contributions to CSF-ICE
   Dipayan Datta          : RHF DLPNO-CCSD density
   Achintya Kumar Dutta   : EOM-CC, STEOM-CC
   Dmitry Ganyushin       : Spin-Orbit,Spin-Spin,Magnetic field MRCI
   Miquel Garcia          : C-PCM and meta-GGA Hessian, CC/C-PCM, Gaussian charge scheme
   Yang Guo               : DLPNO-NEVPT2, F12-NEVPT2, CIM, IAO-localization
   Andreas Hansen         : Spin unrestricted coupled pair/coupled cluster methods
   Benjamin Helmich-Paris : MC-RPA, TRAH-SCF, COSX integrals
   Lee Huntington         : MR-EOM, pCC
   Robert Izsak           : Overlap fitted RIJCOSX, COSX-SCS-MP3, EOM
   Marcus Kettner         : VPT2
   Christian Kollmar      : KDIIS, OOCD, Brueckner-CCSD(T), CCSD density, CASPT2, CASPT2-K
   Simone Kossmann        : Meta GGA functionals, TD-DFT gradient, OOMP2, MP2 Hessian
   Martin Krupicka        : Initial AUTO-CI
   Lucas Lang             : DCDCAS
   Marvin Lechner         : AUTO-CI (C++ implementation), FIC-MRCC
   Dagmar Lenk            : GEPOL surface, SMD
   Dimitrios Liakos       : Extrapolation schemes; Compound Job, initial MDCI parallelization
   Dimitrios Manganas     : Further ROCIS development; embedding schemes
   Dimitrios Pantazis     : SARC Basis sets
   Anastasios Papadopoulos: AUTO-CI, single reference methods and gradients
   Taras Petrenko         : DFT Hessian,TD-DFT gradient, ASA, ECA, R-Raman, ABS, FL, XAS/XES, NRVS
   Peter Pinski           : DLPNO-MP2, DLPNO-MP2 Gradient
   Christoph Reimann      : Effective Core Potentials
   Marius Retegan         : Local ZFS, SOC
   Christoph Riplinger    : Optimizer, TS searches, QM/MM, DLPNO-CCSD(T), (RO)-DLPNO pert. Triples
   Tobias Risthaus        : Range-separated hybrids, TD-DFT gradient, RPA, STAB
   Michael Roemelt        : Original ROCIS implementation
   Masaaki Saitow         : Open-shell DLPNO-CCSD energy and density
   Barbara Sandhoefer     : DKH picture change effects
   Avijit Sen             : IP-ROCIS
   Kantharuban Sivalingam : CASSCF convergence, NEVPT2, FIC-MRCI
   Bernardo de Souza      : ESD, SOC TD-DFT
   Georgi Stoychev        : AutoAux, RI-MP2 NMR, DLPNO-MP2 response
   Willem Van den Heuvel  : Paramagnetic NMR
   Boris Wezisla          : Elementary symmetry handling
   Frank Wennmohs         : Technical directorship


 We gratefully acknowledge several colleagues who have allowed us to
 interface, adapt or use parts of their codes:
   Stefan Grimme, W. Hujo, H. Kruse, P. Pracht,  : VdW corrections, initial TS optimization,
                  C. Bannwarth, S. Ehlert          DFT functionals, gCP, sTDA/sTD-DF
   Ed Valeev, F. Pavosevic, A. Kumar             : LibInt (2-el integral package), F12 methods
   Garnet Chan, S. Sharma, J. Yang, R. Olivares  : DMRG
   Ulf Ekstrom                                   : XCFun DFT Library
   Mihaly Kallay                                 : mrcc  (arbitrary order and MRCC methods)
   Jiri Pittner, Ondrej Demel                    : Mk-CCSD
   Frank Weinhold                                : gennbo (NPA and NBO analysis)
   Christopher J. Cramer and Donald G. Truhlar   : smd solvation model
   Lars Goerigk                                  : TD-DFT with DH, B97 family of functionals
   V. Asgeirsson, H. Jonsson                     : NEB implementation
   FAccTs GmbH                                   : IRC, NEB, NEB-TS, DLPNO-Multilevel, CI-OPT
                                                   MM, QMMM, 2- and 3-layer-ONIOM, Crystal-QMMM,
                                                   LR-CPCM, SF, NACMEs, symmetry and pop. for TD-DFT,
                                                   nearIR, NL-DFT gradient (VV10), updates on ESD,
                                                   ML-optimized integration grids
   S Lehtola, MJT Oliveira, MAL Marques          : LibXC Library
   Liviu Ungur et al                             : ANISO software


 Your calculation uses the libint2 library for the computation of 2-el integrals
 For citations please refer to: http://libint.valeyev.net

 Your ORCA version has been built with support for libXC version: 5.1.0
 For citations please refer to: https://tddft.org/programs/libxc/

 This ORCA versions uses:
   CBLAS   interface :  Fast vector & matrix operations
   LAPACKE interface :  Fast linear algebra routines
   SCALAPACK package :  Parallel linear algebra routines
   Shared memory     :  Shared parallel matrices
   BLAS/LAPACK       :  OpenBLAS 0.3.15  USE64BITINT DYNAMIC_ARCH NO_AFFINITY Haswell SINGLE_THREADED
        Core in use  :  Haswell
   Copyright (c) 2011-2014, The OpenBLAS Project


Your calculation utilizes the geometrical counterpoise correction gCP
Please cite in your paper:
H.Kruse, S. Grimme J.Chem.Phys., 136, (2012), 154101 
   

Your calculation utilizes the atom-pairwise dispersion correction
with the Becke-Johnson damping scheme (D3BJ)
Cite in your paper:
S.Grimme, S.Ehrlich, L.Goerigk, J Comput Chem, (2011), 32, 1456–1465 
S.Grimme, J.Antony, S.Ehrlich and H.Krieg, J.Chem.Phys., 132, (2010), 154104 
   

================================================================================

----- Orbital basis set information -----
Your calculation utilizes the basis: MINIX,
   a combination of small basis sets by S. Grimme (see manual for definitions).

================================================================================
                                        WARNINGS
                       Please study these warnings very carefully!
================================================================================

INFO   : Checking CIS options ...

INFO   : the flag for use of the SHARK integral package has been found!

================================================================================
                                       INPUT FILE
================================================================================
NAME = acrolien.561.com
|  1> ! HF-3c
|  2> !TightSCF
|  3> %scf
|  4>  ConvForced true
|  5>  convergence tight
|  6>  MaxIter 500
|  7> end
|  8>  
|  9> %tddft 
| 10>  nroots 1
| 11> end
| 12> 
| 13> # 	28913
| 14> * xyz 0 1
| 15> 		C   -0.563958  -0.403071  -0.008519
| 16> 		O   -0.602399  -1.688127   0.013005
| 17> 		C    0.636096   0.416666  -0.011983
| 18> 		C    1.847861  -0.098206   0.009177
| 19> 		H   -1.501961   0.165766  -0.045526
| 20> 		H    0.447939   1.547807   0.090477
| 21> 		H    1.962650  -1.150665  -0.182820
| 22> 		H    2.750755   0.502276   0.077976
| 23> *
| 24> 
| 25>                          ****END OF INPUT****
================================================================================

                       ****************************
                       * Single Point Calculation *
                       ****************************

---------------------------------
CARTESIAN COORDINATES (ANGSTROEM)
---------------------------------
  C     -0.563958   -0.403071   -0.008519
  O     -0.602399   -1.688127    0.013005
  C      0.636096    0.416666   -0.011983
  C      1.847861   -0.098206    0.009177
  H     -1.501961    0.165766   -0.045526
  H      0.447939    1.547807    0.090477
  H      1.962650   -1.150665   -0.182820
  H      2.750755    0.502276    0.077976

----------------------------
CARTESIAN COORDINATES (A.U.)
----------------------------
  NO LB      ZA    FRAG     MASS         X           Y           Z
   0 C     6.0000    0    12.011   -1.065726   -0.761694   -0.016099
   1 O     8.0000    0    15.999   -1.138369   -3.190098    0.024576
   2 C     6.0000    0    12.011    1.202047    0.787385   -0.022645
   3 C     6.0000    0    12.011    3.491951   -0.185582    0.017342
   4 H     1.0000    0     1.008   -2.838295    0.313252   -0.086032
   5 H     1.0000    0     1.008    0.846482    2.924931    0.170977
   6 H     1.0000    0     1.008    3.708871   -2.174442   -0.345480
   7 H     1.0000    0     1.008    5.198174    0.949164    0.147353

--------------------------------
INTERNAL COORDINATES (ANGSTROEM)
--------------------------------
 C      0   0   0     0.000000000000     0.00000000     0.00000000
 O      1   0   0     1.285810995517     0.00000000     0.00000000
 C      1   2   0     1.453310135993   126.04662879     0.00000000
 C      3   1   2     1.316782190497   122.63585464   359.90602548
 H      1   2   3     1.097631394698   119.53479694   178.85188425
 H      3   1   2     1.151251957710   114.77315888   186.77536546
 H      4   3   1     1.075969009410   118.54002991    12.98510430
 H      4   3   1     1.086521748499   123.34246060   184.49210616

---------------------------
INTERNAL COORDINATES (A.U.)
---------------------------
 C      0   0   0     0.000000000000     0.00000000     0.00000000
 O      1   0   0     2.429830641512     0.00000000     0.00000000
 C      1   2   0     2.746358144679   126.04662879     0.00000000
 C      3   1   2     2.488357718063   122.63585464   359.90602548
 H      1   2   3     2.074222731974   119.53479694   178.85188425
 H      3   1   2     2.175550911212   114.77315888   186.77536546
 H      4   3   1     2.033286756372   118.54002991    12.98510430
 H      4   3   1     2.053228543212   123.34246060   184.49210616

---------------------
BASIS SET INFORMATION
---------------------
There are 3 groups of distinct atoms

 Group   1 Type C   : 6s3p contracted to 2s1p pattern {33/3}
 Group   2 Type O   : 6s3p contracted to 2s1p pattern {33/3}
 Group   3 Type H   : 3s contracted to 1s pattern {3}

Atom   0C    basis set group =>   1
Atom   1O    basis set group =>   2
Atom   2C    basis set group =>   1
Atom   3C    basis set group =>   1
Atom   4H    basis set group =>   3
Atom   5H    basis set group =>   3
Atom   6H    basis set group =>   3
Atom   7H    basis set group =>   3
------------------------------------------------------------------------------
                           ORCA GTO INTEGRAL CALCULATION
------------------------------------------------------------------------------
------------------------------------------------------------------------------
                   ___                                                        
                  /   \      - P O W E R E D   B Y -                         
                 /     \                                                     
                 |  |  |   _    _      __       _____    __    __             
                 |  |  |  | |  | |    /  \     |  _  \  |  |  /  |          
                  \  \/   | |  | |   /    \    | | | |  |  | /  /          
                 / \  \   | |__| |  /  /\  \   | |_| |  |  |/  /          
                |  |  |   |  __  | /  /__\  \  |    /   |      \           
                |  |  |   | |  | | |   __   |  |    \   |  |\   \          
                \     /   | |  | | |  |  |  |  | |\  \  |  | \   \       
                 \___/    |_|  |_| |__|  |__|  |_| \__\ |__|  \__/        
                                                                              
                      - O R C A' S   B I G   F R I E N D -                    
                                      &                                       
                       - I N T E G R A L  F E E D E R -                       
                                                                              
 v1 FN, 2020, v2 2021                                                         
------------------------------------------------------------------------------


Reading SHARK input file acrolien.561.SHARKINP.tmp ... ok
----------------------
SHARK INTEGRAL PACKAGE
----------------------

Number of atoms                             ...      8
Number of basis functions                   ...     24
Number of shells                            ...     16
Maximum angular momentum                    ...      1
Integral batch strategy                     ... SHARK/LIBINT Hybrid
RI-J (if used) integral strategy            ... SPLIT-RIJ (Revised 2003 algorithm where possible)
Printlevel                                  ...      1
Contraction scheme used                     ... SEGMENTED contraction
Coulomb Range Separation                    ... NOT USED
Exchange Range Separation                   ... NOT USED
Finite Nucleus Model                        ... NOT USED
Auxiliary Coulomb fitting basis             ... NOT available
Auxiliary J/K fitting basis                 ... NOT available
Auxiliary Correlation fitting basis         ... NOT available
Auxiliary 'external' fitting basis          ... NOT available
Integral threshold                          ...     2.500000e-11
Primitive cut-off                           ...     2.500000e-12
Primitive pair pre-selection threshold      ...     2.500000e-12

Calculating pre-screening integrals         ... done (  0.0 sec) Dimension = 16
Organizing shell pair data                  ... done (  0.4 sec)
Shell pair information
Total number of shell pairs                 ...       136
Shell pairs after pre-screening             ...       133
Total number of primitive shell pairs       ...      1224
Primitive shell pairs kept                  ...      1001
          la=0 lb=0:     75 shell pairs
          la=1 lb=0:     48 shell pairs
          la=1 lb=1:     10 shell pairs

Calculating one electron integrals          ... done (  0.0 sec)
Calculating Nuclear repulsion               ... done (  0.0 sec) ENN=    103.402289696415 Eh
Calculating 4-index integrals               ... 
    -> SHARK/Ints2Disk: Thresh =     2.500000e-11 TCut=    2.500000e-12 
    -> calling libint FockFlag=2 Lmax_loc=1
    ->Total LIBINT loop time =    0.001 sec
    -> L=0 0 0 0:     0.003 sec done=      2824 (=100.0%) skipped=         0 
    -> L=1 0 0 0:     0.007 sec done=      3596 (=100.0%) skipped=         0 
    -> L=1 0 1 0:     0.004 sec done=      1176 (=100.0%) skipped=         0 
    -> L=1 1 0 0:     0.003 sec done=       750 (=100.0%) skipped=         0 
    -> L=1 1 1 0:     0.004 sec done=       480 (=100.0%) skipped=         0 
    -> L=1 1 1 1:     0.001 sec done=        55 (=100.0%) skipped=         0 
    ->Total SHARK integral loop time =    0.022 sec
    -> Total Integral generation matrix time =    0.538 sec
    -> Number of small integrals   =       762
    -> Number of medium integrals  =      2828
    -> Number of large integrals   =     40081
    -> Number of MB stored         =         0 MB


SHARK setup successfully completed in   2.7 seconds

Maximum memory used throughout the entire GTOINT-calculation: 29.5 MB
-------------------------------------------------------------------------------
                                 ORCA SCF
-------------------------------------------------------------------------------

------------
SCF SETTINGS
------------
Hamiltonian:
 Ab initio Hamiltonian  Method          .... Hartree-Fock(GTOs)


General Settings:
 Integral files         IntName         .... acrolien.561
 Hartree-Fock type      HFTyp           .... RHF
 Total Charge           Charge          ....    0
 Multiplicity           Mult            ....    1
 Number of Electrons    NEL             ....   30
 Basis Dimension        Dim             ....   24
 Nuclear Repulsion      ENuc            ....    103.4022896964 Eh

Convergence Acceleration:
 DIIS                   CNVDIIS         .... on
   Start iteration      DIISMaxIt       ....    12
   Startup error        DIISStart       ....  0.200000
   # of expansion vecs  DIISMaxEq       ....     5
   Bias factor          DIISBfac        ....   1.050
   Max. coefficient     DIISMaxC        ....  10.000
 Trust-Rad. Augm. Hess. CNVTRAH         .... auto
   Auto Start mean grad. ratio tolernc. ....  1.125000
   Auto Start start iteration           ....    20
   Auto Start num. interpolation iter.  ....    10
   Max. Number of Micro iterations      ....    16
   Max. Number of Macro iterations      .... Maxiter - #DIIS iter
   Number of Davidson start vectors     ....     2
   Converg. threshold I  (grad. norm)   ....   1.000e-05
   Converg. threshold II (energy diff.) ....   1.000e-08
   Grad. Scal. Fac. for Micro threshold ....   0.100
   Minimum threshold for Micro iter.    ....   0.010
   NR start threshold (gradient norm)   ....   0.001
   Initial trust radius                 ....   0.400
   Minimum AH scaling param. (alpha)    ....   1.000
   Maximum AH scaling param. (alpha)    .... 1000.000
   Orbital update algorithm             .... Taylor
   White noise on init. David. guess    .... on
   Maximum white noise                  ....   0.010
   Quad. conv. algorithm                .... NR
 SOSCF                  CNVSOSCF        .... on
   Start iteration      SOSCFMaxIt      ....   150
   Startup grad/error   SOSCFStart      ....  0.003300
 Level Shifting         CNVShift        .... on
   Level shift para.    LevelShift      ....    0.2500
   Turn off err/grad.   ShiftErr        ....    0.0010
 Zerner damping         CNVZerner       .... off
 Static damping         CNVDamp         .... on
   Fraction old density DampFac         ....    0.7000
   Max. Damping (<1)    DampMax         ....    0.9800
   Min. Damping (>=0)   DampMin         ....    0.0000
   Turn off err/grad.   DampErr         ....    0.1000
 Fernandez-Rico         CNVRico         .... off

SCF Procedure:
 Maximum # iterations   MaxIter         ....   500
 SCF integral mode      SCFMode         .... Conventional
 Integral Threshold     Thresh          ....  2.500e-11 Eh
 Primitive CutOff       TCut            ....  2.500e-12 Eh
 Integral Buffer length BufferLength    .... 1048576
 Integral index format  IndFormat       ....     0
 Integral value format  ValFormat       ....     0
 Integral Storage       Thresh          ....  2.500e-11 Eh

Convergence Tolerance:
 Convergence Check Mode ConvCheckMode   .... Total+1el-Energy
 Convergence forced     ConvForced      .... 1
 Energy Change          TolE            ....  1.000e-08 Eh
 1-El. energy change                    ....  1.000e-05 Eh
 Orbital Gradient       TolG            ....  1.000e-05
 Orbital Rotation angle TolX            ....  1.000e-05
 DIIS Error             TolErr          ....  5.000e-07


Diagonalization of the overlap matrix:
Smallest eigenvalue                        ... 1.771e-01
Time for diagonalization                   ...    0.000 sec
Threshold for overlap eigenvalues          ... 1.000e-08
Number of eigenvalues below threshold      ... 0
Time for construction of square roots      ...    0.733 sec
Total time needed                          ...    0.733 sec

--------------------------------
INITIAL GUESS: MINIMAL BASIS EHT
--------------------------------
The minimal basis has 24 functions
EHT matrix was diagonalized
Basis set overlap was calculated now projecting the orbitals
Using GuessMode=FMatrix for the initial guess
C*T matrix was formed
Effective Fockian was calculated
Effective Fockian was diagonalized
Initial density was built
                      ------------------
                      INITIAL GUESS DONE
                      ------------------

 InCore treatment chosen:
   Memory dedicated               ...    1024 MB
   Memory needed                  ...      0 MB
   Number of tiny    integrals    ...     762
   Number of small   integrals    ...    2828
   Number of regular integrals    ...   40081

--------------
SCF ITERATIONS
--------------
ITER       Energy         Delta-E        Max-DP      RMS-DP      [F,P]     Damp
  0   -189.0213648380   0.000000000000 0.18375087  0.01646716  0.3595711 0.7000
  1   -189.1573308320  -0.135965993921 0.15492215  0.01310606  0.2373018 0.7000
                               ***Turning on DIIS***
  2   -189.2410336866  -0.083702854642 0.09532924  0.00816296  0.1306008 0.7000
  3   -189.3114373325  -0.070403645915 0.12725692  0.01446261  0.0851181 0.0000
  4   -189.4208219316  -0.109384599033 0.01574447  0.00196618  0.0104000 0.0000
  5   -189.4201192772   0.000702654392 0.01006661  0.00091614  0.0058618 0.0000
                      *** Initiating the SOSCF procedure ***
                           *** Shutting down DIIS ***
                      *** Re-Reading the Fockian *** 
                      *** Removing any level shift *** 
ITER      Energy       Delta-E        Grad      Rot      Max-DP    RMS-DP
  6   -189.41983858   0.0002806983  0.002940  0.002940  0.004920  0.000522
  7   -189.42175530  -0.0019167177  0.000931  0.001474  0.002042  0.000181
  8   -189.42176141  -0.0000061153  0.000339  0.001263  0.002417  0.000220
  9   -189.42176372  -0.0000023105  0.000162  0.000204  0.000621  0.000043
 10   -189.42176390  -0.0000001767  0.000087  0.000102  0.000171  0.000016
 11   -189.42176395  -0.0000000544  0.000030  0.000141  0.000256  0.000019
 12   -189.42176397  -0.0000000209  0.000013  0.000047  0.000080  0.000005
 13   -189.42176398  -0.0000000027  0.000006  0.000046  0.000078  0.000006
                 **** Energy Check signals convergence ****
              ***Rediagonalizing the Fockian in SOSCF/NRSCF***

               *****************************************************
               *                     SUCCESS                       *
               *           SCF CONVERGED AFTER  14 CYCLES          *
               *****************************************************


----------------
TOTAL SCF ENERGY
----------------

Total Energy       :         -189.42176398 Eh           -5154.42824 eV

Components:
Nuclear Repulsion  :          103.40228970 Eh            2813.71935 eV
Electronic Energy  :         -292.82405368 Eh           -7968.14759 eV
One Electron Energy:         -462.00277943 Eh          -12571.73476 eV
Two Electron Energy:          169.17872576 Eh            4603.58717 eV

Virial components:
Potential Energy   :         -378.46414918 Eh          -10298.53307 eV
Kinetic Energy     :          189.04238520 Eh            5144.10482 eV
Virial Ratio       :            2.00200685


---------------
SCF CONVERGENCE
---------------

  Last Energy change         ...   -1.5403e-09  Tolerance :   1.0000e-08
  Last MAX-Density change    ...    9.6318e-06  Tolerance :   1.0000e-07
  Last RMS-Density change    ...    1.0080e-06  Tolerance :   5.0000e-09
  Last Orbital Gradient      ...    2.5029e-06  Tolerance :   1.0000e-05
  Last Orbital Rotation      ...    4.2740e-06  Tolerance :   1.0000e-05

             **** THE GBW FILE WAS UPDATED (acrolien.561.gbw) ****
             **** DENSITY acrolien.561.scfp WAS UPDATED ****
             **** ENERGY FILE WAS UPDATED (acrolien.561.en.tmp) ****
             **** THE GBW FILE WAS UPDATED (acrolien.561.gbw) ****
             **** DENSITY acrolien.561.scfp WAS UPDATED ****
----------------
ORBITAL ENERGIES
----------------

  NO   OCC          E(Eh)            E(eV) 
   0   2.0000     -20.344016      -553.5888 
   1   2.0000     -11.279173      -306.9219 
   2   2.0000     -11.196736      -304.6787 
   3   2.0000     -11.193947      -304.6028 
   4   2.0000      -1.346218       -36.6324 
   5   2.0000      -1.087071       -29.5807 
   6   2.0000      -0.903177       -24.5767 
   7   2.0000      -0.741361       -20.1735 
   8   2.0000      -0.694065       -18.8865 
   9   2.0000      -0.610925       -16.6241 
  10   2.0000      -0.583640       -15.8816 
  11   2.0000      -0.519552       -14.1377 
  12   2.0000      -0.515972       -14.0403 
  13   2.0000      -0.417715       -11.3666 
  14   2.0000      -0.389095       -10.5878 
  15   0.0000       0.115562         3.1446 
  16   0.0000       0.307359         8.3637 
  17   0.0000       0.532990        14.5034 
  18   0.0000       0.596826        16.2405 
  19   0.0000       0.664176        18.0731 
  20   0.0000       0.700962        19.0742 
  21   0.0000       0.766895        20.8683 
  22   0.0000       0.911912        24.8144 
  23   0.0000       1.014332        27.6014 

                    ********************************
                    * MULLIKEN POPULATION ANALYSIS *
                    ********************************

-----------------------
MULLIKEN ATOMIC CHARGES
-----------------------
   0 C :    0.139378
   1 O :   -0.340431
   2 C :   -0.173504
   3 C :   -0.218310
   4 H :    0.137521
   5 H :    0.145035
   6 H :    0.161068
   7 H :    0.149242
Sum of atomic charges:   -0.0000000

--------------------------------
MULLIKEN REDUCED ORBITAL CHARGES
--------------------------------
  0 C s       :     3.085298  s :     3.085298
      pz      :     0.863076  p :     2.775325
      px      :     1.058823
      py      :     0.853425
  1 O s       :     3.858748  s :     3.858748
      pz      :     1.186131  p :     4.481683
      px      :     1.938694
      py      :     1.356858
  2 C s       :     3.082615  s :     3.082615
      pz      :     1.041703  p :     3.090888
      px      :     0.988387
      py      :     1.060798
  3 C s       :     3.137467  s :     3.137467
      pz      :     0.912390  p :     3.080842
      px      :     1.062351
      py      :     1.106102
  4 H s       :     0.862479  s :     0.862479
  5 H s       :     0.854965  s :     0.854965
  6 H s       :     0.838932  s :     0.838932
  7 H s       :     0.850758  s :     0.850758


                     *******************************
                     * LOEWDIN POPULATION ANALYSIS *
                     *******************************

----------------------
LOEWDIN ATOMIC CHARGES
----------------------
   0 C :    0.139668
   1 O :   -0.268679
   2 C :   -0.131194
   3 C :   -0.115842
   4 H :    0.075725
   5 H :    0.097457
   6 H :    0.105154
   7 H :    0.097710

-------------------------------
LOEWDIN REDUCED ORBITAL CHARGES
-------------------------------
  0 C s       :     2.998783  s :     2.998783
      pz      :     0.866153  p :     2.861549
      px      :     1.073777
      py      :     0.921619
  1 O s       :     3.751497  s :     3.751497
      pz      :     1.184469  p :     4.517182
      px      :     1.940049
      py      :     1.392664
  2 C s       :     2.972790  s :     2.972790
      pz      :     1.037048  p :     3.158404
      px      :     1.051932
      py      :     1.069424
  3 C s       :     3.001155  s :     3.001155
      pz      :     0.915171  p :     3.114687
      px      :     1.095496
      py      :     1.104020
  4 H s       :     0.924275  s :     0.924275
  5 H s       :     0.902543  s :     0.902543
  6 H s       :     0.894846  s :     0.894846
  7 H s       :     0.902290  s :     0.902290


                      *****************************
                      * MAYER POPULATION ANALYSIS *
                      *****************************

  NA   - Mulliken gross atomic population
  ZA   - Total nuclear charge
  QA   - Mulliken gross atomic charge
  VA   - Mayer's total valence
  BVA  - Mayer's bonded valence
  FA   - Mayer's free valence

  ATOM       NA         ZA         QA         VA         BVA        FA
  0 C      5.8606     6.0000     0.1394     3.8950     3.8950    -0.0000
  1 O      8.3404     8.0000    -0.3404     2.0389     2.0389    -0.0000
  2 C      6.1735     6.0000    -0.1735     3.9749     3.9749    -0.0000
  3 C      6.2183     6.0000    -0.2183     3.9414     3.9414    -0.0000
  4 H      0.8625     1.0000     0.1375     0.9811     0.9811    -0.0000
  5 H      0.8550     1.0000     0.1450     0.9790     0.9790    -0.0000
  6 H      0.8389     1.0000     0.1611     0.9741     0.9741    -0.0000
  7 H      0.8508     1.0000     0.1492     0.9777     0.9777    -0.0000

  Mayer bond orders larger than 0.100000
B(  0-C ,  1-O ) :   1.8853 B(  0-C ,  2-C ) :   1.0554 B(  0-C ,  4-H ) :   0.9351 
B(  2-C ,  3-C ) :   1.9310 B(  2-C ,  5-H ) :   0.9538 B(  3-C ,  6-H ) :   0.9572 
B(  3-C ,  7-H ) :   0.9633 

-------
TIMINGS
-------

Total SCF time: 0 days 0 hours 0 min 4 sec 

Total time                  ....       4.529 sec
Sum of individual times     ....       0.703 sec  ( 15.5%)

Fock matrix formation       ....       0.101 sec  (  2.2%)
Diagonalization             ....       0.001 sec  (  0.0%)
Density matrix formation    ....       0.000 sec  (  0.0%)
Population analysis         ....       0.454 sec  ( 10.0%)
Initial guess               ....       0.002 sec  (  0.0%)
Orbital Transformation      ....       0.000 sec  (  0.0%)
Orbital Orthonormalization  ....       0.000 sec  (  0.0%)
DIIS solution               ....       0.002 sec  (  0.0%)
SOSCF solution              ....       0.144 sec  (  3.2%)

Maximum memory used throughout the entire SCF-calculation: 225.0 MB
------------------------------------------------------------------------------
                         ORCA CIS CALCULATION
------------------------------------------------------------------------------

Input orbitals are from        ... acrolien.561.gbw
CI-vector output               ... acrolien.561.cis
Tamm-Dancoff approximation     ... operative
CIS-Integral strategy          ... AO-integrals
Integral handling              ... AO integral Conventional
Reference state                ... RHF
Generation of triplets         ... off
Follow IRoot                   ... off
Number of operators            ... 1
Orbital ranges used for CIS calculation:
 Operator 0:  Orbitals   4... 14  to  15... 23
XAS localization array:
 Operator 0:  Orbitals  -1... -1

------------------------
DAVIDSON-DIAGONALIZATION
------------------------

Dimension of the eigenvalue problem            ...     99
Number of roots to be determined               ...      1
Maximum size of the expansion space            ...     10
Maximum number of iterations                   ...    100
Convergence tolerance for the residual         ...    2.500e-07
Convergence tolerance for the energies         ...    2.500e-07
Orthogonality tolerance                        ...    1.000e-14
Level Shift                                    ...    0.000e+00
Constructing the preconditioner                ... o.k.
Building the initial guess                     ... o.k.
Number of trial vectors determined             ...     10


                       ****Iteration    0****

   Memory handling for direct AO based CIS:
   Memory per vector needed      ...     1 MB
   Memory needed                 ...     0 MB
   Memory available              ...   512 MB
   Number of vectors per batch   ...   512
   Number of batches             ...     1
   Time for densities:            0.000
   SHARK[4]
   Time for Sigma-Completion:     0.000
   Size of expansion space: 3
   Lowest Energy          :     0.181677238461
   Maximum Energy change  :     0.181677238461 (vector 0)
   Maximum residual norm  :     0.015019463500

                       ****Iteration    1****
   Time for densities:            0.000
   SHARK[4]
   Time for Sigma-Completion:     0.000
   Size of expansion space: 4
   Lowest Energy          :     0.132069339671
   Maximum Energy change  :     0.049607898790 (vector 0)
   Maximum residual norm  :     0.000916173802

                       ****Iteration    2****
   Time for densities:            0.000
   SHARK[4]
   Time for Sigma-Completion:     0.000
   Size of expansion space: 5
   Lowest Energy          :     0.129501267127
   Maximum Energy change  :     0.002568072544 (vector 0)
   Maximum residual norm  :     0.000059637399

                       ****Iteration    3****
   Time for densities:            0.000
   SHARK[4]
   Time for Sigma-Completion:     0.000
   Size of expansion space: 6
   Lowest Energy          :     0.129400057294
   Maximum Energy change  :     0.000101209833 (vector 0)
   Maximum residual norm  :     0.000003524805

                       ****Iteration    4****
   Time for densities:            0.000
   SHARK[4]
   Time for Sigma-Completion:     0.000
   Size of expansion space: 7
   Lowest Energy          :     0.129393958125
   Maximum Energy change  :     0.000006099170 (vector 0)
   Maximum residual norm  :     0.000000272855

                       ****Iteration    5****
   Time for densities:            0.000
   SHARK[4]
   Time for Sigma-Completion:     0.000
   Size of expansion space: 8
   Lowest Energy          :     0.129393384437
   Maximum Energy change  :     0.000000573688 (vector 0)
   Maximum residual norm  :     0.000000039681

      *** CONVERGENCE OF RESIDUAL NORM REACHED ***

Storing the converged CI vectors               ... acrolien.561.cis1

                 *** DAVIDSON DONE ***

Total time for solving the CIS problem:     1.436sec

-----------------------------
CIS-EXCITED STATES (SINGLETS)
-----------------------------

the weight of the individual excitations are printed if larger than 1.0e-02

STATE  1:  E=   0.129393 au      3.521 eV    28398.6 cm**-1 <S**2> =   0.000000
    10a ->  15a  :     0.011920 (c=  0.10917815)
    13a ->  15a  :     0.830062 (c= -0.91107739)
    13a ->  16a  :     0.124381 (c= -0.35267713)


----------------------
CIS-EXCITATION SPECTRA
----------------------

Center of mass = (  0.5768, -0.9084,  0.0004)
Calculating the Dipole integrals                  ... done
Transforming integrals                            ... done
Calculating the Linear Momentum integrals         ... done
Transforming integrals                            ... done
Calculating angular momentum integrals            ... done
Transforming integrals                            ... done

-----------------------------------------------------------------------------
         ABSORPTION SPECTRUM VIA TRANSITION ELECTRIC DIPOLE MOMENTS
-----------------------------------------------------------------------------
State   Energy    Wavelength  fosc         T2        TX        TY        TZ  
        (cm-1)      (nm)                 (au**2)    (au)      (au)      (au) 
-----------------------------------------------------------------------------
   1   28398.6    352.1   0.000028300   0.00033   0.01508  -0.00138   0.00994

-----------------------------------------------------------------------------
         ABSORPTION SPECTRUM VIA TRANSITION VELOCITY DIPOLE MOMENTS
-----------------------------------------------------------------------------
State   Energy    Wavelength   fosc        P2         PX        PY        PZ  
        (cm-1)      (nm)                 (au**2)     (au)      (au)      (au) 
-----------------------------------------------------------------------------
   1   28398.6    352.1   0.000734447   0.00014  -0.00229  -0.00147  -0.01162

-------------------------------------------------------------------
                             CD SPECTRUM
-------------------------------------------------------------------
State  Energy     Wavelength     R         MX        MY        MZ   
       (cm-1)       (nm)     (1e40*cgs)   (au)      (au)      (au)  
-------------------------------------------------------------------
   1   28398.6    352.1     -0.12832   0.04326   0.49159  -0.02455

-------------------------------------------------------------------
         CD SPECTRUM VIA TRANSITION VELOCITY DIPOLE MOMENTS        
-------------------------------------------------------------------
State  Energy     Wavelength     R         MX        MY        MZ   
       (cm-1)       (nm)     (1e40*cgs)   (au)      (au)      (au)  
-------------------------------------------------------------------
   1   28398.6    352.1     -1.95870   0.04326   0.49159  -0.02455

Total run time:        2.527 sec

           *** ORCA-CIS/TD-DFT FINISHED WITHOUT ERROR ***

Maximum memory used throughout the entire CIS-calculation: 51.7 MB

-----------------------
CIS/TD-DFT TOTAL ENERGY
-----------------------

    E(SCF)  =   -189.421763979 Eh
    DE(CIS) =      0.129393384 Eh (Root  1)
    ----------------------------- ---------
    E(tot)  =   -189.292370594 Eh



-------------------------------------------------------------------------------
                          DFT DISPERSION CORRECTION                            
                                                                               
                              DFTD3 V3.1  Rev 1                                
                          USING Becke-Johnson damping                          
-------------------------------------------------------------------------------
Hartree-Fock is recognized
Active option DFTDOPT                   ...         4   

molecular C6(AA) [au] = 660.968208 


            DFT-D V3
 parameters
 using HF/MINIX parameters
 s6 scaling factor         :     1.0000 
 a1 scaling factor         :     0.4171 
 s8 scaling factor         :     0.8777 
 a2 scaling factor         :     2.9149 
 ad hoc parameters k1-k3   :    16.0000     1.3333    -4.0000 

 Edisp/kcal,au: -16.069902625182  -0.025609017194 
 E6   /kcal   :  -8.894111108 
 E8   /kcal   :  -7.175791518 
 % E8         :  44.653609204 

-------------------------   ----------------
Dispersion correction           -0.025609017
-------------------------   ----------------

------------------   -----------------
gCP+bas correction        -0.036354313
------------------   -----------------
----------------------------   ----------------
Total correction to HF/MINIX       -0.061963331
----------------------------   ----------------


-------------------------   --------------------
FINAL SINGLE POINT ENERGY      -189.354333924995
-------------------------   --------------------


                            ***************************************
                            *     ORCA property calculations      *
                            ***************************************

                                    ---------------------
                                    Active property flags
                                    ---------------------
   (+) Dipole Moment


------------------------------------------------------------------------------
                       ORCA ELECTRIC PROPERTIES CALCULATION
------------------------------------------------------------------------------

Dipole Moment Calculation                       ... on
Quadrupole Moment Calculation                   ... off
Polarizability Calculation                      ... off
GBWName                                         ... acrolien.561.gbw
Electron density                                ... acrolien.561.scfp
The origin for moment calculation is the CENTER OF MASS  = ( 0.576787, -0.908423  0.000393)

-------------
DIPOLE MOMENT
-------------
                                X             Y             Z
Electronic contribution:     -1.90493      -1.76008       0.03481
Nuclear contribution   :      2.27431       2.78546      -0.05678
                        -----------------------------------------
Total Dipole Moment    :      0.36938       1.02539      -0.02197
                        -----------------------------------------
Magnitude (a.u.)       :      1.09011
Magnitude (Debye)      :      2.77084



--------------------
Rotational spectrum 
--------------------
 
Rotational constants in cm-1:     0.751427     0.203688     0.160422 
Rotational constants in MHz : 22527.215995  6106.412530  4809.321214 

 Dipole components along the rotational axes: 
x,y,z [a.u.] :     0.874740    -0.650136    -0.022233 
x,y,z [Debye]:     2.223413    -1.652514    -0.056513 

 

Timings for individual modules:

Sum of individual times         ...       10.698 sec (=   0.178 min)
GTO integral calculation        ...        2.909 sec (=   0.048 min)  27.2 %
SCF iterations                  ...        4.874 sec (=   0.081 min)  45.6 %
CIS module                      ...        2.915 sec (=   0.049 min)  27.2 %
                             ****ORCA TERMINATED NORMALLY****
TOTAL RUN TIME: 0 days 0 hours 0 minutes 12 seconds 838 msec
