
                                 *****************
                                 * O   R   C   A *
                                 *****************

                                            #,                                       
                                            ###                                      
                                            ####                                     
                                            #####                                    
                                            ######                                   
                                           ########,                                 
                                     ,,################,,,,,                         
                               ,,#################################,,                 
                          ,,##########################################,,             
                       ,#########################################, ''#####,          
                    ,#############################################,,   '####,        
                  ,##################################################,,,,####,       
                ,###########''''           ''''###############################       
              ,#####''   ,,,,##########,,,,          '''####'''          '####       
            ,##' ,,,,###########################,,,                        '##       
           ' ,,###''''                  '''############,,,                           
         ,,##''                                '''############,,,,        ,,,,,,###''
      ,#''                                            '''#######################'''  
     '                                                          ''''####''''         
             ,#######,   #######,   ,#######,      ##                                
            ,#'     '#,  ##    ##  ,#'     '#,    #''#        ######   ,####,        
            ##       ##  ##   ,#'  ##            #'  '#       #        #'  '#        
            ##       ##  #######   ##           ,######,      #####,   #    #        
            '#,     ,#'  ##    ##  '#,     ,#' ,#      #,         ##   #,  ,#        
             '#######'   ##     ##  '#######'  #'      '#     #####' # '####'        



                  #######################################################
                  #                        -***-                        #
                  #          Department of theory and spectroscopy      #
                  #    Directorship and core code : Frank Neese         #
                  #        Max Planck Institute fuer Kohlenforschung    #
                  #                Kaiser Wilhelm Platz 1               #
                  #                 D-45470 Muelheim/Ruhr               #
                  #                      Germany                        #
                  #                                                     #
                  #                  All rights reserved                #
                  #                        -***-                        #
                  #######################################################


                         Program Version 5.0.3 -  RELEASE  -


 With contributions from (in alphabetic order):
   Daniel Aravena         : Magnetic Suceptibility
   Michael Atanasov       : Ab Initio Ligand Field Theory (pilot matlab implementation)
   Alexander A. Auer      : GIAO ZORA, VPT2 properties, NMR spectrum
   Ute Becker             : Parallelization
   Giovanni Bistoni       : ED, misc. LED, open-shell LED, HFLD
   Martin Brehm           : Molecular dynamics
   Dmytro Bykov           : SCF Hessian
   Vijay G. Chilkuri      : MRCI spin determinant printing, contributions to CSF-ICE
   Dipayan Datta          : RHF DLPNO-CCSD density
   Achintya Kumar Dutta   : EOM-CC, STEOM-CC
   Dmitry Ganyushin       : Spin-Orbit,Spin-Spin,Magnetic field MRCI
   Miquel Garcia          : C-PCM and meta-GGA Hessian, CC/C-PCM, Gaussian charge scheme
   Yang Guo               : DLPNO-NEVPT2, F12-NEVPT2, CIM, IAO-localization
   Andreas Hansen         : Spin unrestricted coupled pair/coupled cluster methods
   Benjamin Helmich-Paris : MC-RPA, TRAH-SCF, COSX integrals
   Lee Huntington         : MR-EOM, pCC
   Robert Izsak           : Overlap fitted RIJCOSX, COSX-SCS-MP3, EOM
   Marcus Kettner         : VPT2
   Christian Kollmar      : KDIIS, OOCD, Brueckner-CCSD(T), CCSD density, CASPT2, CASPT2-K
   Simone Kossmann        : Meta GGA functionals, TD-DFT gradient, OOMP2, MP2 Hessian
   Martin Krupicka        : Initial AUTO-CI
   Lucas Lang             : DCDCAS
   Marvin Lechner         : AUTO-CI (C++ implementation), FIC-MRCC
   Dagmar Lenk            : GEPOL surface, SMD
   Dimitrios Liakos       : Extrapolation schemes; Compound Job, initial MDCI parallelization
   Dimitrios Manganas     : Further ROCIS development; embedding schemes
   Dimitrios Pantazis     : SARC Basis sets
   Anastasios Papadopoulos: AUTO-CI, single reference methods and gradients
   Taras Petrenko         : DFT Hessian,TD-DFT gradient, ASA, ECA, R-Raman, ABS, FL, XAS/XES, NRVS
   Peter Pinski           : DLPNO-MP2, DLPNO-MP2 Gradient
   Christoph Reimann      : Effective Core Potentials
   Marius Retegan         : Local ZFS, SOC
   Christoph Riplinger    : Optimizer, TS searches, QM/MM, DLPNO-CCSD(T), (RO)-DLPNO pert. Triples
   Tobias Risthaus        : Range-separated hybrids, TD-DFT gradient, RPA, STAB
   Michael Roemelt        : Original ROCIS implementation
   Masaaki Saitow         : Open-shell DLPNO-CCSD energy and density
   Barbara Sandhoefer     : DKH picture change effects
   Avijit Sen             : IP-ROCIS
   Kantharuban Sivalingam : CASSCF convergence, NEVPT2, FIC-MRCI
   Bernardo de Souza      : ESD, SOC TD-DFT
   Georgi Stoychev        : AutoAux, RI-MP2 NMR, DLPNO-MP2 response
   Willem Van den Heuvel  : Paramagnetic NMR
   Boris Wezisla          : Elementary symmetry handling
   Frank Wennmohs         : Technical directorship


 We gratefully acknowledge several colleagues who have allowed us to
 interface, adapt or use parts of their codes:
   Stefan Grimme, W. Hujo, H. Kruse, P. Pracht,  : VdW corrections, initial TS optimization,
                  C. Bannwarth, S. Ehlert          DFT functionals, gCP, sTDA/sTD-DF
   Ed Valeev, F. Pavosevic, A. Kumar             : LibInt (2-el integral package), F12 methods
   Garnet Chan, S. Sharma, J. Yang, R. Olivares  : DMRG
   Ulf Ekstrom                                   : XCFun DFT Library
   Mihaly Kallay                                 : mrcc  (arbitrary order and MRCC methods)
   Jiri Pittner, Ondrej Demel                    : Mk-CCSD
   Frank Weinhold                                : gennbo (NPA and NBO analysis)
   Christopher J. Cramer and Donald G. Truhlar   : smd solvation model
   Lars Goerigk                                  : TD-DFT with DH, B97 family of functionals
   V. Asgeirsson, H. Jonsson                     : NEB implementation
   FAccTs GmbH                                   : IRC, NEB, NEB-TS, DLPNO-Multilevel, CI-OPT
                                                   MM, QMMM, 2- and 3-layer-ONIOM, Crystal-QMMM,
                                                   LR-CPCM, SF, NACMEs, symmetry and pop. for TD-DFT,
                                                   nearIR, NL-DFT gradient (VV10), updates on ESD,
                                                   ML-optimized integration grids
   S Lehtola, MJT Oliveira, MAL Marques          : LibXC Library
   Liviu Ungur et al                             : ANISO software


 Your calculation uses the libint2 library for the computation of 2-el integrals
 For citations please refer to: http://libint.valeyev.net

 Your ORCA version has been built with support for libXC version: 5.1.0
 For citations please refer to: https://tddft.org/programs/libxc/

 This ORCA versions uses:
   CBLAS   interface :  Fast vector & matrix operations
   LAPACKE interface :  Fast linear algebra routines
   SCALAPACK package :  Parallel linear algebra routines
   Shared memory     :  Shared parallel matrices
   BLAS/LAPACK       :  OpenBLAS 0.3.15  USE64BITINT DYNAMIC_ARCH NO_AFFINITY Haswell SINGLE_THREADED
        Core in use  :  Haswell
   Copyright (c) 2011-2014, The OpenBLAS Project


================================================================================

----- Orbital basis set information -----
Your calculation utilizes the basis: cc-pVDZ 
       H, B-Ne : Obtained from the ccRepo (grant-hill.group.shef.ac.uk/ccrepo) Feb. 2017
                 T. H. Dunning, Jr., J. Chem. Phys. 90, 1007 (1989)
            He : Obtained from the ccRepo (grant-hill.group.shef.ac.uk/ccrepo) Feb. 2017
                 D. E. Woon, T. H. Dunning, Jr., J. Chem. Phys. 100, 2975 (1994)
  Li-Be, Na-Mg : Obtained from the ccRepo (grant-hill.group.shef.ac.uk/ccrepo) Feb. 2017
                 B. P. Prascher, D. E. Woon, K. A. Peterson, T. H. Dunning, Jr., A. K. Wilson, Theor. Chem. Acc. 128, 69 (2011)
         Al-Ar : Obtained from the ccRepo (grant-hill.group.shef.ac.uk/ccrepo) Feb. 2017
                 D. E. Woon, T. H. Dunning, Jr., J. Chem. Phys. 98, 1358 (1993)
            Ca : Obtained from the Peterson Research Group Website (tyr0.chem.wsu.edu/~kipeters) Feb. 2017
                 J. Koput, K. A. Peterson, J. Phys. Chem. 106, 9595 (2002)
         Sc-Zn : Obtained from the ccRepo (grant-hill.group.shef.ac.uk/ccrepo) Feb. 2017
                 N. B. Balabanov, K. A. Peterson, J. Chem. Phys. 123, 064107 (2005)
                 N. B. Balabanov, K. A. Peterson, J. Chem. Phys. 125, 074110 (2006)
         Ga-Kr : Obtained from the ccRepo (grant-hill.group.shef.ac.uk/ccrepo) Feb. 2017
                 A. K. Wilson, D. E. Woon, K. A. Peterson, T. H. Dunning, Jr., J. Chem. Phys. 110, 7667 (1999)

----- AuxJ basis set information -----
Your calculation utilizes the auxiliary basis: def2/J
   F. Weigend, Phys. Chem. Chem. Phys. 8, 1057 (2006).

================================================================================
                                        WARNINGS
                       Please study these warnings very carefully!
================================================================================

INFO   : Checking CIS options ...

INFO   : the flag for use of the SHARK integral package has been found!

================================================================================
                                       INPUT FILE
================================================================================
NAME = acrolien.470.com
|  1> ! B3LYP cc-pVDZ
|  2> !TightSCF
|  3> %scf
|  4>  ConvForced true
|  5>  convergence tight
|  6>  MaxIter 500
|  7> end
|  8>  
|  9> %tddft 
| 10>  nroots 1
| 11> end
| 12> 
| 13> # 	32157
| 14> * xyz 0 1
| 15> 		C   -0.576211  -0.464962  -0.005679
| 16> 		O   -0.595700  -1.669880   0.008263
| 17> 		C    0.645835   0.461211   0.042253
| 18> 		C    1.845785  -0.098256  -0.025235
| 19> 		H   -1.455794   0.292358  -0.222734
| 20> 		H    0.464901   1.457317  -0.020180
| 21> 		H    1.802624  -1.333332  -0.003351
| 22> 		H    2.798325   0.548397  -0.018336
| 23> *
| 24> 
| 25>                          ****END OF INPUT****
================================================================================

                       ****************************
                       * Single Point Calculation *
                       ****************************

---------------------------------
CARTESIAN COORDINATES (ANGSTROEM)
---------------------------------
  C     -0.576211   -0.464962   -0.005679
  O     -0.595700   -1.669880    0.008263
  C      0.645835    0.461211    0.042253
  C      1.845785   -0.098256   -0.025235
  H     -1.455794    0.292358   -0.222734
  H      0.464901    1.457317   -0.020180
  H      1.802624   -1.333332   -0.003351
  H      2.798325    0.548397   -0.018336

----------------------------
CARTESIAN COORDINATES (A.U.)
----------------------------
  NO LB      ZA    FRAG     MASS         X           Y           Z
   0 C     6.0000    0    12.011   -1.088881   -0.878651   -0.010732
   1 O     8.0000    0    15.999   -1.125710   -3.155616    0.015615
   2 C     6.0000    0    12.011    1.220451    0.871562    0.079847
   3 C     6.0000    0    12.011    3.488028   -0.185677   -0.047687
   4 H     1.0000    0     1.008   -2.751052    0.552477   -0.420906
   5 H     1.0000    0     1.008    0.878536    2.753930   -0.038135
   6 H     1.0000    0     1.008    3.406466   -2.519632   -0.006332
   7 H     1.0000    0     1.008    5.288068    1.036320   -0.034650

--------------------------------
INTERNAL COORDINATES (ANGSTROEM)
--------------------------------
 C      0   0   0     0.000000000000     0.00000000     0.00000000
 O      1   0   0     1.205156250122     0.00000000     0.00000000
 C      1   2   0     1.534108968968   128.03345604     0.00000000
 C      3   1   2     1.325683958088   117.68811534     6.48284186
 H      1   2   3     1.180810191908   129.14683742   169.63550504
 H      3   1   2     1.014328425650   116.67046589   177.38962465
 H      4   3   1     1.236023667716   112.90405624   354.10355746
 H      4   3   1     1.151321045673   120.76630901   178.58013039

---------------------------
INTERNAL COORDINATES (A.U.)
---------------------------
 C      0   0   0     0.000000000000     0.00000000     0.00000000
 O      1   0   0     2.277415261315     0.00000000     0.00000000
 C      1   2   0     2.899045810942   128.03345604     0.00000000
 C      3   1   2     2.505179620920   117.68811534     6.48284186
 H      1   2   3     2.231407878849   129.14683742   169.63550504
 H      3   1   2     1.916802934329   116.67046589   177.38962465
 H      4   3   1     2.335746227027   112.90405624   354.10355746
 H      4   3   1     2.175681468542   120.76630901   178.58013039

---------------------
BASIS SET INFORMATION
---------------------
There are 3 groups of distinct atoms

 Group   1 Type C   : 17s4p1d contracted to 3s2p1d pattern {881/31/1}
 Group   2 Type O   : 17s4p1d contracted to 3s2p1d pattern {881/31/1}
 Group   3 Type H   : 4s1p contracted to 2s1p pattern {31/1}

Atom   0C    basis set group =>   1
Atom   1O    basis set group =>   2
Atom   2C    basis set group =>   1
Atom   3C    basis set group =>   1
Atom   4H    basis set group =>   3
Atom   5H    basis set group =>   3
Atom   6H    basis set group =>   3
Atom   7H    basis set group =>   3
---------------------------------
AUXILIARY/J BASIS SET INFORMATION
---------------------------------
There are 3 groups of distinct atoms

 Group   1 Type C   : 12s5p4d2f1g contracted to 6s4p3d1f1g pattern {711111/2111/211/2/1}
 Group   2 Type O   : 12s5p4d2f1g contracted to 6s4p3d1f1g pattern {711111/2111/211/2/1}
 Group   3 Type H   : 5s2p1d contracted to 3s1p1d pattern {311/2/1}

Atom   0C    basis set group =>   1
Atom   1O    basis set group =>   2
Atom   2C    basis set group =>   1
Atom   3C    basis set group =>   1
Atom   4H    basis set group =>   3
Atom   5H    basis set group =>   3
Atom   6H    basis set group =>   3
Atom   7H    basis set group =>   3
------------------------------------------------------------------------------
                           ORCA GTO INTEGRAL CALCULATION
                           -- RI-GTO INTEGRALS CHOSEN --
------------------------------------------------------------------------------
------------------------------------------------------------------------------
                   ___                                                        
                  /   \      - P O W E R E D   B Y -                         
                 /     \                                                     
                 |  |  |   _    _      __       _____    __    __             
                 |  |  |  | |  | |    /  \     |  _  \  |  |  /  |          
                  \  \/   | |  | |   /    \    | | | |  |  | /  /          
                 / \  \   | |__| |  /  /\  \   | |_| |  |  |/  /          
                |  |  |   |  __  | /  /__\  \  |    /   |      \           
                |  |  |   | |  | | |   __   |  |    \   |  |\   \          
                \     /   | |  | | |  |  |  |  | |\  \  |  | \   \       
                 \___/    |_|  |_| |__|  |__|  |_| \__\ |__|  \__/        
                                                                              
                      - O R C A' S   B I G   F R I E N D -                    
                                      &                                       
                       - I N T E G R A L  F E E D E R -                       
                                                                              
 v1 FN, 2020, v2 2021                                                         
------------------------------------------------------------------------------


Reading SHARK input file acrolien.470.SHARKINP.tmp ... ok
----------------------
SHARK INTEGRAL PACKAGE
----------------------

Number of atoms                             ...      8
Number of basis functions                   ...    100
Number of shells                            ...     60
Maximum angular momentum                    ...      2
Integral batch strategy                     ... SHARK/LIBINT Hybrid
RI-J (if used) integral strategy            ... SPLIT-RIJ (Revised 2003 algorithm where possible)
Printlevel                                  ...      1
Contraction scheme used                     ... PARTIAL GENERAL contraction
Coulomb Range Separation                    ... NOT USED
Exchange Range Separation                   ... NOT USED
Finite Nucleus Model                        ... NOT USED
Auxiliary Coulomb fitting basis             ... AVAILABLE
   # of basis functions in Aux-J            ...    240
   # of shells in Aux-J                     ...     80
   Maximum angular momentum in Aux-J        ...      4
Auxiliary J/K fitting basis                 ... NOT available
Auxiliary Correlation fitting basis         ... NOT available
Auxiliary 'external' fitting basis          ... NOT available
Integral threshold                          ...     2.500000e-11
Primitive cut-off                           ...     2.500000e-12
Primitive pair pre-selection threshold      ...     2.500000e-12

Calculating pre-screening integrals         ... done (  0.0 sec) Dimension = 60
Calculating pre-screening integrals (ORCA)  ... done (  0.2 sec) Dimension = 36
Organizing shell pair data                  ... done (  0.4 sec)
Shell pair information
Total number of shell pairs                 ...      1830
Shell pairs after pre-screening             ...      1532
Total number of primitive shell pairs       ...      2950
Primitive shell pairs kept                  ...      2292
          la=0 lb=0:    724 shell pairs
          la=1 lb=0:    502 shell pairs
          la=1 lb=1:     78 shell pairs
          la=2 lb=0:    170 shell pairs
          la=2 lb=1:     48 shell pairs
          la=2 lb=2:     10 shell pairs

Calculating one electron integrals          ... done (  0.0 sec)
Calculating RI/J V-Matrix + Cholesky decomp.... done (  0.3 sec)
Calculating Nuclear repulsion               ... done (  0.3 sec) ENN=    103.546508565453 Eh

SHARK setup successfully completed in   2.7 seconds

Maximum memory used throughout the entire GTOINT-calculation: 14.2 MB
-------------------------------------------------------------------------------
                                 ORCA SCF
-------------------------------------------------------------------------------

------------
SCF SETTINGS
------------
Hamiltonian:
 Density Functional     Method          .... DFT(GTOs)
 Exchange Functional    Exchange        .... B88
   X-Alpha parameter    XAlpha          ....  0.666667
   Becke's b parameter  XBeta           ....  0.004200
 Correlation Functional Correlation     .... LYP
 LDA part of GGA corr.  LDAOpt          .... VWN-5
 Gradients option       PostSCFGGA      .... off
 Hybrid DFT is turned on
   Fraction HF Exchange ScalHFX         ....  0.200000
   Scaling of DF-GGA-X  ScalDFX         ....  0.720000
   Scaling of DF-GGA-C  ScalDFC         ....  0.810000
   Scaling of DF-LDA-C  ScalLDAC        ....  1.000000
   Perturbative correction              ....  0.000000
   Density functional embedding theory  .... OFF
   NL short-range parameter             ....  4.800000
 RI-approximation to the Coulomb term is turned on
   Number of AuxJ basis functions       .... 240
   RIJ-COSX (HFX calculated with COS-X)).... on


General Settings:
 Integral files         IntName         .... acrolien.470
 Hartree-Fock type      HFTyp           .... RHF
 Total Charge           Charge          ....    0
 Multiplicity           Mult            ....    1
 Number of Electrons    NEL             ....   30
 Basis Dimension        Dim             ....   76
 Nuclear Repulsion      ENuc            ....    103.5465085655 Eh

Convergence Acceleration:
 DIIS                   CNVDIIS         .... on
   Start iteration      DIISMaxIt       ....    12
   Startup error        DIISStart       ....  0.200000
   # of expansion vecs  DIISMaxEq       ....     5
   Bias factor          DIISBfac        ....   1.050
   Max. coefficient     DIISMaxC        ....  10.000
 Trust-Rad. Augm. Hess. CNVTRAH         .... auto
   Auto Start mean grad. ratio tolernc. ....  1.125000
   Auto Start start iteration           ....    20
   Auto Start num. interpolation iter.  ....    10
   Max. Number of Micro iterations      ....    16
   Max. Number of Macro iterations      .... Maxiter - #DIIS iter
   Number of Davidson start vectors     ....     2
   Converg. threshold I  (grad. norm)   ....   1.000e-05
   Converg. threshold II (energy diff.) ....   1.000e-08
   Grad. Scal. Fac. for Micro threshold ....   0.100
   Minimum threshold for Micro iter.    ....   0.010
   NR start threshold (gradient norm)   ....   0.001
   Initial trust radius                 ....   0.400
   Minimum AH scaling param. (alpha)    ....   1.000
   Maximum AH scaling param. (alpha)    .... 1000.000
   Orbital update algorithm             .... Taylor
   White noise on init. David. guess    .... on
   Maximum white noise                  ....   0.010
   Quad. conv. algorithm                .... NR
 SOSCF                  CNVSOSCF        .... on
   Start iteration      SOSCFMaxIt      ....   150
   Startup grad/error   SOSCFStart      ....  0.003300
 Level Shifting         CNVShift        .... on
   Level shift para.    LevelShift      ....    0.2500
   Turn off err/grad.   ShiftErr        ....    0.0010
 Zerner damping         CNVZerner       .... off
 Static damping         CNVDamp         .... on
   Fraction old density DampFac         ....    0.7000
   Max. Damping (<1)    DampMax         ....    0.9800
   Min. Damping (>=0)   DampMin         ....    0.0000
   Turn off err/grad.   DampErr         ....    0.1000
 Fernandez-Rico         CNVRico         .... off

SCF Procedure:
 Maximum # iterations   MaxIter         ....   500
 SCF integral mode      SCFMode         .... Direct
   Integral package                     .... SHARK and LIBINT hybrid scheme
 Reset frequency        DirectResetFreq ....    20
 Integral Threshold     Thresh          ....  2.500e-11 Eh
 Primitive CutOff       TCut            ....  2.500e-12 Eh

Convergence Tolerance:
 Convergence Check Mode ConvCheckMode   .... Total+1el-Energy
 Convergence forced     ConvForced      .... 1
 Energy Change          TolE            ....  1.000e-08 Eh
 1-El. energy change                    ....  1.000e-05 Eh
 Orbital Gradient       TolG            ....  1.000e-05
 Orbital Rotation angle TolX            ....  1.000e-05
 DIIS Error             TolErr          ....  5.000e-07


Diagonalization of the overlap matrix:
Smallest eigenvalue                        ... 3.031e-03
Time for diagonalization                   ...    0.001 sec
Threshold for overlap eigenvalues          ... 1.000e-08
Number of eigenvalues below threshold      ... 0
Time for construction of square roots      ...    0.479 sec
Total time needed                          ...    0.480 sec

Time for model grid setup =    0.318 sec

------------------------------
INITIAL GUESS: MODEL POTENTIAL
------------------------------
Loading Hartree-Fock densities                     ... done
Calculating cut-offs                               ... done
Initializing the effective Hamiltonian             ... done
Setting up the integral package (SHARK)            ... done
Starting the Coulomb interaction                   ... done (   0.9 sec)
Reading the grid                                   ... done
Mapping shells                                     ... done
Starting the XC term evaluation                    ... done (   0.1 sec)
  promolecular density results
     # of electrons  =     29.999580354
     EX              =    -24.710913386
     EC              =     -0.993771986
     EX+EC           =    -25.704685372
Transforming the Hamiltonian                       ... done (   0.0 sec)
Diagonalizing the Hamiltonian                      ... done (   0.0 sec)
Back transforming the eigenvectors                 ... done (   0.0 sec)
Now organizing SCF variables                       ... done
                      ------------------
                      INITIAL GUESS DONE (   1.8 sec)
                      ------------------
-------------------
DFT GRID GENERATION
-------------------

General Integration Accuracy     IntAcc      ... 4.388
Radial Grid Type                 RadialGrid  ... OptM3 with GC (2021)
Angular Grid (max. ang.)         AngularGrid ... 4 (Lebedev-302)
Angular grid pruning method      GridPruning ... 4 (adaptive)
Weight generation scheme         WeightScheme... Becke
Basis function cutoff            BFCut       ... 1.0000e-11
Integration weight cutoff        WCut        ... 1.0000e-14
Angular grids for H and He will be reduced by one unit
Partially contracted basis set               ... off
Rotationally invariant grid construction     ... off

Total number of grid points                  ...    37397
Total number of batches                      ...      590
Average number of points per batch           ...       63
Average number of grid points per atom       ...     4675
Time for grid setup =    0.667 sec

--------------------
COSX GRID GENERATION
--------------------

GRIDX 1
-------
General Integration Accuracy     IntAcc      ... 3.816
Radial Grid Type                 RadialGrid  ... OptM3 with GC (2021)
Angular Grid (max. ang.)         AngularGrid ... 1 (Lebedev-50)
Angular grid pruning method      GridPruning ... 4 (adaptive)
Weight generation scheme         WeightScheme... Becke
Basis function cutoff            BFCut       ... 1.0000e-11
Integration weight cutoff        WCut        ... 1.0000e-14
Angular grids for H and He will be reduced by one unit
Partially contracted basis set               ... on
Rotationally invariant grid construction     ... off

Total number of grid points                  ...     4793
Total number of batches                      ...       78
Average number of points per batch           ...       61
Average number of grid points per atom       ...      599
UseSFitting                                  ... on

GRIDX 2
-------
General Integration Accuracy     IntAcc      ... 4.020
Radial Grid Type                 RadialGrid  ... OptM3 with GC (2021)
Angular Grid (max. ang.)         AngularGrid ... 2 (Lebedev-110)
Angular grid pruning method      GridPruning ... 4 (adaptive)
Weight generation scheme         WeightScheme... Becke
Basis function cutoff            BFCut       ... 1.0000e-11
Integration weight cutoff        WCut        ... 1.0000e-14
Angular grids for H and He will be reduced by one unit
Partially contracted basis set               ... on
Rotationally invariant grid construction     ... off

Total number of grid points                  ...    10553
Total number of batches                      ...      169
Average number of points per batch           ...       62
Average number of grid points per atom       ...     1319
UseSFitting                                  ... on

GRIDX 3
-------
General Integration Accuracy     IntAcc      ... 4.338
Radial Grid Type                 RadialGrid  ... OptM3 with GC (2021)
Angular Grid (max. ang.)         AngularGrid ... 3 (Lebedev-194)
Angular grid pruning method      GridPruning ... 4 (adaptive)
Weight generation scheme         WeightScheme... Becke
Basis function cutoff            BFCut       ... 1.0000e-11
Integration weight cutoff        WCut        ... 1.0000e-14
Angular grids for H and He will be reduced by one unit
Partially contracted basis set               ... on
Rotationally invariant grid construction     ... off

Total number of grid points                  ...    23272
Total number of batches                      ...      369
Average number of points per batch           ...       63
Average number of grid points per atom       ...     2909
UseSFitting                                  ... on

Time for X-Grid setup             =    4.753 sec

 re-compute Schwartz prescreening matrix in partically contracted basis (1) ...done (   0.085 sec)
--------------
SCF ITERATIONS
--------------
ITER       Energy         Delta-E        Max-DP      RMS-DP      [F,P]     Damp
               ***  Starting incremental Fock matrix formation  ***
  0   -191.6550310347   0.000000000000 0.09393056  0.00377872  0.2456569 0.7000
  1   -191.7171602742  -0.062129239557 0.05424863  0.00240083  0.0929112 0.7000
                               ***Turning on DIIS***
  2   -191.7382018062  -0.021041531944 0.06501417  0.00335197  0.0359754 0.0000
  3   -191.7751798058  -0.036977999585 0.03529776  0.00173276  0.0443585 0.0000
  4   -191.7819139955  -0.006734189787 0.00934447  0.00054133  0.0203820 0.0000
                      *** Initiating the SOSCF procedure ***
                           *** Shutting down DIIS ***
                      *** Re-Reading the Fockian *** 
                      *** Removing any level shift *** 
ITER      Energy       Delta-E        Grad      Rot      Max-DP    RMS-DP
  5   -191.78282713  -0.0009131306  0.000779  0.000779  0.003195  0.000155
               *** Restarting incremental Fock matrix formation ***
  6   -191.78288727  -0.0000601482  0.000597  0.001732  0.001986  0.000109
  7   -191.78288552   0.0000017526  0.000764  0.000711  0.001110  0.000046
  8   -191.78289072  -0.0000052024  0.000165  0.000334  0.000443  0.000028
  9   -191.78289047   0.0000002545  0.000184  0.000162  0.000279  0.000014
 10   -191.78289099  -0.0000005239  0.000040  0.000154  0.000153  0.000006
 11   -191.78289097   0.0000000233  0.000062  0.000096  0.000094  0.000004
                  ***Gradient check signals convergence***
              ***Rediagonalizing the Fockian in SOSCF/NRSCF***

               *****************************************************
               *                     SUCCESS                       *
               *           SCF CONVERGED AFTER  12 CYCLES          *
               *****************************************************

Old exchange energy                            =     -5.011070934 Eh
New exchange energy                            =     -5.011043811 Eh
Exchange energy change after final integration =      0.000027123 Eh
Total energy after final integration           =   -191.782863886 Eh
Final COS-X integration done in                =     1.511 sec

----------------
TOTAL SCF ENERGY
----------------

Total Energy       :         -191.78286389 Eh           -5218.67704 eV

Components:
Nuclear Repulsion  :          103.54650857 Eh            2817.64374 eV
Electronic Energy  :         -295.32937245 Eh           -8036.32078 eV
One Electron Energy:         -464.33564969 Eh          -12635.21539 eV
Two Electron Energy:          169.00627724 Eh            4598.89461 eV
Max COSX asymmetry :            0.00000119 Eh               0.00003 eV

Virial components:
Potential Energy   :         -382.20731225 Eh          -10400.38971 eV
Kinetic Energy     :          190.42444836 Eh            5181.71267 eV
Virial Ratio       :            2.00713362


DFT components:
N(Alpha)           :       15.000009902160 electrons
N(Beta)            :       15.000009902160 electrons
N(Total)           :       30.000019804319 electrons
E(X)               :      -19.929135866999 Eh       
E(C)               :       -1.180381512496 Eh       
E(XC)              :      -21.109517379495 Eh       
DFET-embed. en.    :        0.000000000000 Eh       

---------------
SCF CONVERGENCE
---------------

  Last Energy change         ...   -3.8999e-08  Tolerance :   1.0000e-08
  Last MAX-Density change    ...    3.9968e-15  Tolerance :   1.0000e-07
  Last RMS-Density change    ...    7.2189e-17  Tolerance :   5.0000e-09
  Last Orbital Gradient      ...    1.5947e-06  Tolerance :   1.0000e-05
  Last Orbital Rotation      ...    3.9437e-06  Tolerance :   1.0000e-05

             **** THE GBW FILE WAS UPDATED (acrolien.470.gbw) ****
             **** DENSITY acrolien.470.scfp WAS UPDATED ****
             **** ENERGY FILE WAS UPDATED (acrolien.470.en.tmp) ****
             **** THE GBW FILE WAS UPDATED (acrolien.470.gbw) ****
             **** DENSITY acrolien.470.scfp WAS UPDATED ****
----------------
ORBITAL ENERGIES
----------------

  NO   OCC          E(Eh)            E(eV) 
   0   2.0000     -19.152048      -521.1537 
   1   2.0000     -10.287111      -279.9265 
   2   2.0000     -10.225036      -278.2374 
   3   2.0000     -10.196498      -277.4608 
   4   2.0000      -1.056206       -28.7408 
   5   2.0000      -0.794190       -21.6110 
   6   2.0000      -0.644546       -17.5390 
   7   2.0000      -0.535777       -14.5792 
   8   2.0000      -0.500204       -13.6112 
   9   2.0000      -0.448746       -12.2110 
  10   2.0000      -0.419098       -11.4042 
  11   2.0000      -0.402199       -10.9444 
  12   2.0000      -0.373389       -10.1604 
  13   2.0000      -0.291953        -7.9445 
  14   2.0000      -0.259468        -7.0605 
  15   0.0000      -0.066122        -1.7993 
  16   0.0000       0.052885         1.4391 
  17   0.0000       0.065063         1.7705 
  18   0.0000       0.066059         1.7976 
  19   0.0000       0.122865         3.3433 
  20   0.0000       0.137549         3.7429 
  21   0.0000       0.240456         6.5431 
  22   0.0000       0.276313         7.5189 
  23   0.0000       0.280985         7.6460 
  24   0.0000       0.437991        11.9183 
  25   0.0000       0.447340        12.1728 
  26   0.0000       0.450974        12.2716 
  27   0.0000       0.487669        13.2702 
  28   0.0000       0.512263        13.9394 
  29   0.0000       0.535211        14.5638 
  30   0.0000       0.568802        15.4779 
  31   0.0000       0.597674        16.2635 
  32   0.0000       0.624506        16.9937 
  33   0.0000       0.654438        17.8082 
  34   0.0000       0.694702        18.9038 
  35   0.0000       0.728596        19.8261 
  36   0.0000       0.774227        21.0678 
  37   0.0000       0.845889        23.0178 
  38   0.0000       0.896449        24.3936 
  39   0.0000       0.971229        26.4285 
  40   0.0000       0.983448        26.7610 
  41   0.0000       1.012596        27.5541 
  42   0.0000       1.019141        27.7322 
  43   0.0000       1.072453        29.1829 
  44   0.0000       1.084110        29.5001 
  45   0.0000       1.147515        31.2255 
  46   0.0000       1.152541        31.3622 
  47   0.0000       1.295110        35.2417 
  48   0.0000       1.310438        35.6588 
  49   0.0000       1.458011        39.6745 
  50   0.0000       1.488960        40.5167 
  51   0.0000       1.524234        41.4765 
  52   0.0000       1.551155        42.2091 
  53   0.0000       1.568465        42.6801 
  54   0.0000       1.597278        43.4641 
  55   0.0000       1.656446        45.0742 
  56   0.0000       1.690726        46.0070 
  57   0.0000       1.704919        46.3932 
  58   0.0000       1.800078        48.9826 
  59   0.0000       1.821730        49.5718 
  60   0.0000       1.876020        51.0491 
  61   0.0000       1.923871        52.3512 
  62   0.0000       2.036676        55.4208 
  63   0.0000       2.049421        55.7676 
  64   0.0000       2.061292        56.0906 
  65   0.0000       2.114930        57.5502 
  66   0.0000       2.247175        61.1487 
  67   0.0000       2.439734        66.3885 
  68   0.0000       2.530912        68.8696 
  69   0.0000       2.653180        72.1967 
  70   0.0000       2.671513        72.6956 
  71   0.0000       2.729252        74.2667 
  72   0.0000       2.961756        80.5935 
  73   0.0000       3.077710        83.7488 
  74   0.0000       3.397229        92.4433 
  75   0.0000       3.449272        93.8595 

                    ********************************
                    * MULLIKEN POPULATION ANALYSIS *
                    ********************************

-----------------------
MULLIKEN ATOMIC CHARGES
-----------------------
   0 C :    0.165110
   1 O :   -0.177304
   2 C :   -0.053995
   3 C :   -0.004956
   4 H :   -0.012310
   5 H :   -0.041469
   6 H :    0.074745
   7 H :    0.050179
Sum of atomic charges:    0.0000000

--------------------------------
MULLIKEN REDUCED ORBITAL CHARGES
--------------------------------
  0 C s       :     3.123285  s :     3.123285
      pz      :     0.753260  p :     2.567409
      px      :     0.944196
      py      :     0.869953
      dz2     :     0.005788  d :     0.144196
      dxz     :     0.004770
      dyz     :     0.030589
      dx2y2   :     0.029418
      dxy     :     0.073631
  1 O s       :     3.746445  s :     3.746445
      pz      :     1.306285  p :     4.411880
      px      :     1.745081
      py      :     1.360513
      dz2     :     0.002120  d :     0.018980
      dxz     :     0.000015
      dyz     :     0.005747
      dx2y2   :     0.006685
      dxy     :     0.004413
  2 C s       :     3.135739  s :     3.135739
      pz      :     1.002740  p :     2.861081
      px      :     0.962186
      py      :     0.896156
      dz2     :     0.003057  d :     0.057174
      dxz     :     0.007085
      dyz     :     0.003240
      dx2y2   :     0.023175
      dxy     :     0.020617
  3 C s       :     3.164174  s :     3.164174
      pz      :     0.876023  p :     2.797701
      px      :     0.957974
      py      :     0.963704
      dz2     :     0.001454  d :     0.043081
      dxz     :     0.008349
      dyz     :     0.001971
      dx2y2   :     0.015906
      dxy     :     0.015401
  4 H s       :     0.987844  s :     0.987844
      pz      :     0.003099  p :     0.024465
      px      :     0.012422
      py      :     0.008945
  5 H s       :     1.009307  s :     1.009307
      pz      :     0.007269  p :     0.032162
      px      :     0.005538
      py      :     0.019355
  6 H s       :     0.901074  s :     0.901074
      pz      :     0.003319  p :     0.024181
      px      :     0.003665
      py      :     0.017197
  7 H s       :     0.923157  s :     0.923157
      pz      :     0.004541  p :     0.026664
      px      :     0.014012
      py      :     0.008111


                     *******************************
                     * LOEWDIN POPULATION ANALYSIS *
                     *******************************

----------------------
LOEWDIN ATOMIC CHARGES
----------------------
   0 C :   -0.029313
   1 O :    0.008910
   2 C :   -0.085674
   3 C :   -0.001497
   4 H :   -0.004476
   5 H :    0.005292
   6 H :    0.063277
   7 H :    0.043482

-------------------------------
LOEWDIN REDUCED ORBITAL CHARGES
-------------------------------
  0 C s       :     2.891911  s :     2.891911
      pz      :     0.746024  p :     2.759510
      px      :     1.012255
      py      :     1.001232
      dz2     :     0.020848  d :     0.377892
      dxz     :     0.010463
      dyz     :     0.063635
      dx2y2   :     0.079773
      dxy     :     0.203173
  1 O s       :     3.494213  s :     3.494213
      pz      :     1.282387  p :     4.463860
      px      :     1.702802
      py      :     1.478671
      dz2     :     0.004569  d :     0.033017
      dxz     :     0.000014
      dyz     :     0.006557
      dx2y2   :     0.014070
      dxy     :     0.007807
  2 C s       :     2.836591  s :     2.836591
      pz      :     0.956314  p :     3.062427
      px      :     1.071703
      py      :     1.034409
      dz2     :     0.015172  d :     0.186656
      dxz     :     0.018665
      dyz     :     0.007529
      dx2y2   :     0.073015
      dxy     :     0.072276
  3 C s       :     2.902902  s :     2.902902
      pz      :     0.858720  p :     2.961849
      px      :     1.070595
      py      :     1.032534
      dz2     :     0.009069  d :     0.136746
      dxz     :     0.017296
      dyz     :     0.003839
      dx2y2   :     0.057924
      dxy     :     0.048617
  4 H s       :     0.937601  s :     0.937601
      pz      :     0.008843  p :     0.066875
      px      :     0.033896
      py      :     0.024137
  5 H s       :     0.893391  s :     0.893391
      pz      :     0.023756  p :     0.101317
      px      :     0.020990
      py      :     0.056571
  6 H s       :     0.877394  s :     0.877394
      pz      :     0.008677  p :     0.059330
      px      :     0.009074
      py      :     0.041578
  7 H s       :     0.886056  s :     0.886056
      pz      :     0.012364  p :     0.070462
      px      :     0.033976
      py      :     0.024122


                      *****************************
                      * MAYER POPULATION ANALYSIS *
                      *****************************

  NA   - Mulliken gross atomic population
  ZA   - Total nuclear charge
  QA   - Mulliken gross atomic charge
  VA   - Mayer's total valence
  BVA  - Mayer's bonded valence
  FA   - Mayer's free valence

  ATOM       NA         ZA         QA         VA         BVA        FA
  0 C      5.8349     6.0000     0.1651     4.1641     4.1641     0.0000
  1 O      8.1773     8.0000    -0.1773     2.3829     2.3829     0.0000
  2 C      6.0540     6.0000    -0.0540     4.0017     4.0017    -0.0000
  3 C      6.0050     6.0000    -0.0050     3.9109     3.9109     0.0000
  4 H      1.0123     1.0000    -0.0123     0.9580     0.9580     0.0000
  5 H      1.0415     1.0000    -0.0415     0.9807     0.9807     0.0000
  6 H      0.9253     1.0000     0.0747     0.9973     0.9973     0.0000
  7 H      0.9498     1.0000     0.0502     0.9712     0.9712     0.0000

  Mayer bond orders larger than 0.100000
B(  0-C ,  1-O ) :   2.1991 B(  0-C ,  2-C ) :   1.0293 B(  0-C ,  4-H ) :   0.8946 
B(  2-C ,  3-C ) :   1.9615 B(  2-C ,  5-H ) :   0.9547 B(  3-C ,  6-H ) :   0.9092 
B(  3-C ,  7-H ) :   0.9374 

-------
TIMINGS
-------

Total SCF time: 0 days 0 hours 2 min 47 sec 

Total time                  ....     167.042 sec
Sum of individual times     ....     119.735 sec  ( 71.7%)

Fock matrix formation       ....     108.592 sec  ( 65.0%)
  Split-RI-J                ....       0.897 sec  (  0.8% of F)
  Chain of spheres X        ....       8.309 sec  (  7.7% of F)
  XC integration            ....      35.151 sec  ( 32.4% of F)
    Basis function eval.    ....       1.599 sec  (  4.5% of XC)
    Density eval.           ....       0.640 sec  (  1.8% of XC)
    XC-Functional eval.     ....       0.623 sec  (  1.8% of XC)
    XC-Potential eval.      ....       0.601 sec  (  1.7% of XC)
Diagonalization             ....       0.007 sec  (  0.0%)
Density matrix formation    ....       0.001 sec  (  0.0%)
Population analysis         ....       1.878 sec  (  1.1%)
Initial guess               ....       1.474 sec  (  0.9%)
Orbital Transformation      ....       0.000 sec  (  0.0%)
Orbital Orthonormalization  ....       0.000 sec  (  0.0%)
DIIS solution               ....       0.204 sec  (  0.1%)
SOSCF solution              ....       1.843 sec  (  1.1%)
Grid generation             ....       5.737 sec  (  3.4%)

Maximum memory used throughout the entire SCF-calculation: 51.7 MB
------------------------------------------------------------------------------
                        ORCA TD-DFT/TDA CALCULATION
------------------------------------------------------------------------------

Input orbitals are from        ... acrolien.470.gbw
CI-vector output               ... acrolien.470.cis
Tamm-Dancoff approximation     ... operative
CIS-Integral strategy          ... AO-integrals
Integral handling              ... AO integral Direct
Max. core memory used          ... 512 MB
Reference state                ... RHF
Generation of triplets         ... off
Follow IRoot                   ... off
Number of operators            ... 1
Orbital ranges used for CIS calculation:
 Operator 0:  Orbitals   4... 14  to  15... 75
XAS localization array:
 Operator 0:  Orbitals  -1... -1

-------------------
XC-INTEGRATION GRID
-------------------

General Integration Accuracy     IntAcc      ... 3.467
Radial Grid Type                 RadialGrid  ... OptM3 with GC (2021)
Angular Grid (max. ang.)         AngularGrid ... 1 (Lebedev-50)
Angular grid pruning method      GridPruning ... 4 (adaptive)
Weight generation scheme         WeightScheme... Becke
Basis function cutoff            BFCut       ... 1.0000e-11
Integration weight cutoff        WCut        ... 1.0000e-14
Angular grids for H and He will be reduced by one unit
Partially contracted basis set               ... off
Rotationally invariant grid construction     ... off

Total number of grid points                  ...     5490
Total number of batches                      ...       91
Average number of points per batch           ...       60
Average number of grid points per atom       ...      686

---------------------
COSX-INTEGRATION GRID
---------------------

General Integration Accuracy     IntAcc      ... 3.067
Radial Grid Type                 RadialGrid  ... OptM3 with GC (2021)
Angular Grid (max. ang.)         AngularGrid ... 1 (Lebedev-50)
Angular grid pruning method      GridPruning ... 4 (adaptive)
Weight generation scheme         WeightScheme... Becke
Basis function cutoff            BFCut       ... 1.0000e-11
Integration weight cutoff        WCut        ... 1.0000e-14
Angular grids for H and He will be reduced by one unit
Partially contracted basis set               ... on
Rotationally invariant grid construction     ... off

Total number of grid points                  ...     2506
Total number of batches                      ...       45
Average number of points per batch           ...       55
Average number of grid points per atom       ...      313

---------------
TD-DFT XC SETUP
---------------

DFT calculation                         ... on
Name of the grid file                   ... acrolien.470.grid_cis.tmp
Exchange functional (TD-DFT)            ... B88
   X-Alpha parameter    XAlpha (TD-DFT) ...  0.666667
   Becke's b parameter  XBeta (TD-DFT)  ...  0.004200
Correlation functional (TD-DFT)         ... LYP
 LDA part of GGA corr.  LDAOpt (TD-DFT) ... VWN-5
Hybrid DFT                              ... on
   Exchange mixing (TD-DFT)             ...  0.200
   GGA exch. scaling (TD-DFT)           ...  0.720
   GGA corr. scaling (TD-DFT)           ...  0.810

Building densities             ... done
Calculating rho(r) on the grid ... done
Building xc-kernel on the grid ... done
                    *** TD-DFT CALCULATION INITIALIZED ***

------------------------
DAVIDSON-DIAGONALIZATION
------------------------

Dimension of the eigenvalue problem            ...    671
Number of roots to be determined               ...      1
Maximum size of the expansion space            ...     10
Maximum number of iterations                   ...    100
Convergence tolerance for the residual         ...    2.500e-07
Convergence tolerance for the energies         ...    2.500e-07
Orthogonality tolerance                        ...    1.000e-14
Level Shift                                    ...    0.000e+00
Constructing the preconditioner                ... o.k.
Building the initial guess                     ... o.k.
Number of trial vectors determined             ...     10


                       ****Iteration    0****

   Memory handling for direct AO based CIS:
   Memory per vector needed      ...     1 MB
   Memory needed                 ...     0 MB
   Memory available              ...   512 MB
   Number of vectors per batch   ...   512
   Number of batches             ...     1
   Time for densities:            0.000
   Time for RI-J (Direct):        0.070
   Time for K (COSX):             1.745
   Time for XC-Integration:       0.080
   Time for Sigma-Completion:     0.000
   Size of expansion space: 3
   Lowest Energy          :     0.137778922891
   Maximum Energy change  :     0.137778922891 (vector 0)
   Maximum residual norm  :     0.001286603973

                       ****Iteration    1****
   Time for densities:            0.000
   Time for RI-J (Direct):        0.055
   Time for K (COSX):             2.067
   Time for XC-Integration:       0.042
   Time for Sigma-Completion:     0.000
   Size of expansion space: 4
   Lowest Energy          :     0.135145795426
   Maximum Energy change  :     0.002633127465 (vector 0)
   Maximum residual norm  :     0.000128091551

                       ****Iteration    2****
   Time for densities:            0.000
   Time for RI-J (Direct):        0.055
   Time for K (COSX):             0.196
   Time for XC-Integration:       0.043
   Time for Sigma-Completion:     0.000
   Size of expansion space: 5
   Lowest Energy          :     0.134987806231
   Maximum Energy change  :     0.000157989195 (vector 0)
   Maximum residual norm  :     0.000006962134

                       ****Iteration    3****
   Time for densities:            0.000
   Time for RI-J (Direct):        0.057
   Time for K (COSX):             0.246
   Time for XC-Integration:       0.043
   Time for Sigma-Completion:     0.000
   Size of expansion space: 6
   Lowest Energy          :     0.134981216053
   Maximum Energy change  :     0.000006590178 (vector 0)
   Maximum residual norm  :     0.000001355657

                       ****Iteration    4****
   Time for densities:            0.000
   Time for RI-J (Direct):        0.053
   Time for K (COSX):             0.220
   Time for XC-Integration:       0.042
   Time for Sigma-Completion:     0.000
   Size of expansion space: 7
   Lowest Energy          :     0.134979793210
   Maximum Energy change  :     0.000001422843 (vector 0)
   Maximum residual norm  :     0.000000085197

      *** CONVERGENCE OF RESIDUAL NORM REACHED ***

Storing the converged CI vectors               ... acrolien.470.cis1

                 *** DAVIDSON DONE ***

Total time for solving the CIS problem:     8.003sec

------------------------------------
TD-DFT/TDA EXCITED STATES (SINGLETS)
------------------------------------

the weight of the individual excitations are printed if larger than 1.0e-02

STATE  1:  E=   0.134980 au      3.673 eV    29624.6 cm**-1 <S**2> =   0.000000
    14a ->  15a  :     0.980765 (c= -0.99033600)
    14a ->  16a  :     0.011291 (c= -0.10625927)


-----------------------------
TD-DFT/TDA-EXCITATION SPECTRA
-----------------------------

Center of mass = (  0.5769, -0.9090,  0.0001)
Calculating the Dipole integrals                  ... done
Transforming integrals                            ... done
Calculating the Linear Momentum integrals         ... done
Transforming integrals                            ... done
Calculating angular momentum integrals            ... done
Transforming integrals                            ... done

-----------------------------------------------------------------------------
         ABSORPTION SPECTRUM VIA TRANSITION ELECTRIC DIPOLE MOMENTS
-----------------------------------------------------------------------------
State   Energy    Wavelength  fosc         T2        TX        TY        TZ  
        (cm-1)      (nm)                 (au**2)    (au)      (au)      (au) 
-----------------------------------------------------------------------------
   1   29624.6    337.6   0.000273555   0.00304  -0.02596  -0.01414   0.04654

-----------------------------------------------------------------------------
         ABSORPTION SPECTRUM VIA TRANSITION VELOCITY DIPOLE MOMENTS
-----------------------------------------------------------------------------
State   Energy    Wavelength   fosc        P2         PX        PY        PZ  
        (cm-1)      (nm)                 (au**2)     (au)      (au)      (au) 
-----------------------------------------------------------------------------
   1   29624.6    337.6   0.001282976   0.00026  -0.00597   0.00025  -0.01497

-------------------------------------------------------------------
                             CD SPECTRUM
-------------------------------------------------------------------
State  Energy     Wavelength     R         MX        MY        MZ   
       (cm-1)       (nm)     (1e40*cgs)   (au)      (au)      (au)  
-------------------------------------------------------------------
   1   29624.6    337.6     -2.81802   0.04039   0.34619  -0.00072

-------------------------------------------------------------------
         CD SPECTRUM VIA TRANSITION VELOCITY DIPOLE MOMENTS        
-------------------------------------------------------------------
State  Energy     Wavelength     R         MX        MY        MZ   
       (cm-1)       (nm)     (1e40*cgs)   (au)      (au)      (au)  
-------------------------------------------------------------------
   1   29624.6    337.6     -0.49978   0.04039   0.34619  -0.00072

Total run time:       12.443 sec

           *** ORCA-CIS/TD-DFT FINISHED WITHOUT ERROR ***

Maximum memory used throughout the entire CIS-calculation: 48.6 MB

-----------------------
CIS/TD-DFT TOTAL ENERGY
-----------------------

    E(SCF)  =   -191.782863886 Eh
    DE(CIS) =      0.134979793 Eh (Root  1)
    ----------------------------- ---------
    E(tot)  =   -191.647884093 Eh


-------------------------   --------------------
FINAL SINGLE POINT ENERGY      -191.647884092804
-------------------------   --------------------


                            ***************************************
                            *     ORCA property calculations      *
                            ***************************************

                                    ---------------------
                                    Active property flags
                                    ---------------------
   (+) Dipole Moment


------------------------------------------------------------------------------
                       ORCA ELECTRIC PROPERTIES CALCULATION
------------------------------------------------------------------------------

Dipole Moment Calculation                       ... on
Quadrupole Moment Calculation                   ... off
Polarizability Calculation                      ... off
GBWName                                         ... acrolien.470.gbw
Electron density                                ... acrolien.470.scfp
The origin for moment calculation is the CENTER OF MASS  = ( 0.576865, -0.909038  0.000056)

-------------
DIPOLE MOMENT
-------------
                                X             Y             Z
Electronic contribution:     -1.83751      -1.81266       0.21729
Nuclear contribution   :      2.22798       2.69272      -0.24823
                        -----------------------------------------
Total Dipole Moment    :      0.39047       0.88006      -0.03095
                        -----------------------------------------
Magnitude (a.u.)       :      0.96329
Magnitude (Debye)      :      2.44850



--------------------
Rotational spectrum 
--------------------
 
Rotational constants in cm-1:     0.755806     0.203148     0.160360 
Rotational constants in MHz : 22658.498113  6090.224155  4807.477619 

 Dipole components along the rotational axes: 
x,y,z [a.u.] :     0.816146    -0.510802    -0.030379 
x,y,z [Debye]:     2.074477    -1.298354    -0.077218 

 

Timings for individual modules:

Sum of individual times         ...      186.356 sec (=   3.106 min)
GTO integral calculation        ...        3.528 sec (=   0.059 min)   1.9 %
SCF iterations                  ...      167.053 sec (=   2.784 min)  89.6 %
CIS module                      ...       15.775 sec (=   0.263 min)   8.5 %
                             ****ORCA TERMINATED NORMALLY****
TOTAL RUN TIME: 0 days 0 hours 3 minutes 10 seconds 180 msec
