
                                 *****************
                                 * O   R   C   A *
                                 *****************

                                            #,                                       
                                            ###                                      
                                            ####                                     
                                            #####                                    
                                            ######                                   
                                           ########,                                 
                                     ,,################,,,,,                         
                               ,,#################################,,                 
                          ,,##########################################,,             
                       ,#########################################, ''#####,          
                    ,#############################################,,   '####,        
                  ,##################################################,,,,####,       
                ,###########''''           ''''###############################       
              ,#####''   ,,,,##########,,,,          '''####'''          '####       
            ,##' ,,,,###########################,,,                        '##       
           ' ,,###''''                  '''############,,,                           
         ,,##''                                '''############,,,,        ,,,,,,###''
      ,#''                                            '''#######################'''  
     '                                                          ''''####''''         
             ,#######,   #######,   ,#######,      ##                                
            ,#'     '#,  ##    ##  ,#'     '#,    #''#        ######   ,####,        
            ##       ##  ##   ,#'  ##            #'  '#       #        #'  '#        
            ##       ##  #######   ##           ,######,      #####,   #    #        
            '#,     ,#'  ##    ##  '#,     ,#' ,#      #,         ##   #,  ,#        
             '#######'   ##     ##  '#######'  #'      '#     #####' # '####'        



                  #######################################################
                  #                        -***-                        #
                  #          Department of theory and spectroscopy      #
                  #    Directorship and core code : Frank Neese         #
                  #        Max Planck Institute fuer Kohlenforschung    #
                  #                Kaiser Wilhelm Platz 1               #
                  #                 D-45470 Muelheim/Ruhr               #
                  #                      Germany                        #
                  #                                                     #
                  #                  All rights reserved                #
                  #                        -***-                        #
                  #######################################################


                         Program Version 5.0.3 -  RELEASE  -


 With contributions from (in alphabetic order):
   Daniel Aravena         : Magnetic Suceptibility
   Michael Atanasov       : Ab Initio Ligand Field Theory (pilot matlab implementation)
   Alexander A. Auer      : GIAO ZORA, VPT2 properties, NMR spectrum
   Ute Becker             : Parallelization
   Giovanni Bistoni       : ED, misc. LED, open-shell LED, HFLD
   Martin Brehm           : Molecular dynamics
   Dmytro Bykov           : SCF Hessian
   Vijay G. Chilkuri      : MRCI spin determinant printing, contributions to CSF-ICE
   Dipayan Datta          : RHF DLPNO-CCSD density
   Achintya Kumar Dutta   : EOM-CC, STEOM-CC
   Dmitry Ganyushin       : Spin-Orbit,Spin-Spin,Magnetic field MRCI
   Miquel Garcia          : C-PCM and meta-GGA Hessian, CC/C-PCM, Gaussian charge scheme
   Yang Guo               : DLPNO-NEVPT2, F12-NEVPT2, CIM, IAO-localization
   Andreas Hansen         : Spin unrestricted coupled pair/coupled cluster methods
   Benjamin Helmich-Paris : MC-RPA, TRAH-SCF, COSX integrals
   Lee Huntington         : MR-EOM, pCC
   Robert Izsak           : Overlap fitted RIJCOSX, COSX-SCS-MP3, EOM
   Marcus Kettner         : VPT2
   Christian Kollmar      : KDIIS, OOCD, Brueckner-CCSD(T), CCSD density, CASPT2, CASPT2-K
   Simone Kossmann        : Meta GGA functionals, TD-DFT gradient, OOMP2, MP2 Hessian
   Martin Krupicka        : Initial AUTO-CI
   Lucas Lang             : DCDCAS
   Marvin Lechner         : AUTO-CI (C++ implementation), FIC-MRCC
   Dagmar Lenk            : GEPOL surface, SMD
   Dimitrios Liakos       : Extrapolation schemes; Compound Job, initial MDCI parallelization
   Dimitrios Manganas     : Further ROCIS development; embedding schemes
   Dimitrios Pantazis     : SARC Basis sets
   Anastasios Papadopoulos: AUTO-CI, single reference methods and gradients
   Taras Petrenko         : DFT Hessian,TD-DFT gradient, ASA, ECA, R-Raman, ABS, FL, XAS/XES, NRVS
   Peter Pinski           : DLPNO-MP2, DLPNO-MP2 Gradient
   Christoph Reimann      : Effective Core Potentials
   Marius Retegan         : Local ZFS, SOC
   Christoph Riplinger    : Optimizer, TS searches, QM/MM, DLPNO-CCSD(T), (RO)-DLPNO pert. Triples
   Tobias Risthaus        : Range-separated hybrids, TD-DFT gradient, RPA, STAB
   Michael Roemelt        : Original ROCIS implementation
   Masaaki Saitow         : Open-shell DLPNO-CCSD energy and density
   Barbara Sandhoefer     : DKH picture change effects
   Avijit Sen             : IP-ROCIS
   Kantharuban Sivalingam : CASSCF convergence, NEVPT2, FIC-MRCI
   Bernardo de Souza      : ESD, SOC TD-DFT
   Georgi Stoychev        : AutoAux, RI-MP2 NMR, DLPNO-MP2 response
   Willem Van den Heuvel  : Paramagnetic NMR
   Boris Wezisla          : Elementary symmetry handling
   Frank Wennmohs         : Technical directorship


 We gratefully acknowledge several colleagues who have allowed us to
 interface, adapt or use parts of their codes:
   Stefan Grimme, W. Hujo, H. Kruse, P. Pracht,  : VdW corrections, initial TS optimization,
                  C. Bannwarth, S. Ehlert          DFT functionals, gCP, sTDA/sTD-DF
   Ed Valeev, F. Pavosevic, A. Kumar             : LibInt (2-el integral package), F12 methods
   Garnet Chan, S. Sharma, J. Yang, R. Olivares  : DMRG
   Ulf Ekstrom                                   : XCFun DFT Library
   Mihaly Kallay                                 : mrcc  (arbitrary order and MRCC methods)
   Jiri Pittner, Ondrej Demel                    : Mk-CCSD
   Frank Weinhold                                : gennbo (NPA and NBO analysis)
   Christopher J. Cramer and Donald G. Truhlar   : smd solvation model
   Lars Goerigk                                  : TD-DFT with DH, B97 family of functionals
   V. Asgeirsson, H. Jonsson                     : NEB implementation
   FAccTs GmbH                                   : IRC, NEB, NEB-TS, DLPNO-Multilevel, CI-OPT
                                                   MM, QMMM, 2- and 3-layer-ONIOM, Crystal-QMMM,
                                                   LR-CPCM, SF, NACMEs, symmetry and pop. for TD-DFT,
                                                   nearIR, NL-DFT gradient (VV10), updates on ESD,
                                                   ML-optimized integration grids
   S Lehtola, MJT Oliveira, MAL Marques          : LibXC Library
   Liviu Ungur et al                             : ANISO software


 Your calculation uses the libint2 library for the computation of 2-el integrals
 For citations please refer to: http://libint.valeyev.net

 Your ORCA version has been built with support for libXC version: 5.1.0
 For citations please refer to: https://tddft.org/programs/libxc/

 This ORCA versions uses:
   CBLAS   interface :  Fast vector & matrix operations
   LAPACKE interface :  Fast linear algebra routines
   SCALAPACK package :  Parallel linear algebra routines
   Shared memory     :  Shared parallel matrices
   BLAS/LAPACK       :  OpenBLAS 0.3.15  USE64BITINT DYNAMIC_ARCH NO_AFFINITY Haswell SINGLE_THREADED
        Core in use  :  Haswell
   Copyright (c) 2011-2014, The OpenBLAS Project


================================================================================

----- Orbital basis set information -----
Your calculation utilizes the basis: cc-pVDZ 
       H, B-Ne : Obtained from the ccRepo (grant-hill.group.shef.ac.uk/ccrepo) Feb. 2017
                 T. H. Dunning, Jr., J. Chem. Phys. 90, 1007 (1989)
            He : Obtained from the ccRepo (grant-hill.group.shef.ac.uk/ccrepo) Feb. 2017
                 D. E. Woon, T. H. Dunning, Jr., J. Chem. Phys. 100, 2975 (1994)
  Li-Be, Na-Mg : Obtained from the ccRepo (grant-hill.group.shef.ac.uk/ccrepo) Feb. 2017
                 B. P. Prascher, D. E. Woon, K. A. Peterson, T. H. Dunning, Jr., A. K. Wilson, Theor. Chem. Acc. 128, 69 (2011)
         Al-Ar : Obtained from the ccRepo (grant-hill.group.shef.ac.uk/ccrepo) Feb. 2017
                 D. E. Woon, T. H. Dunning, Jr., J. Chem. Phys. 98, 1358 (1993)
            Ca : Obtained from the Peterson Research Group Website (tyr0.chem.wsu.edu/~kipeters) Feb. 2017
                 J. Koput, K. A. Peterson, J. Phys. Chem. 106, 9595 (2002)
         Sc-Zn : Obtained from the ccRepo (grant-hill.group.shef.ac.uk/ccrepo) Feb. 2017
                 N. B. Balabanov, K. A. Peterson, J. Chem. Phys. 123, 064107 (2005)
                 N. B. Balabanov, K. A. Peterson, J. Chem. Phys. 125, 074110 (2006)
         Ga-Kr : Obtained from the ccRepo (grant-hill.group.shef.ac.uk/ccrepo) Feb. 2017
                 A. K. Wilson, D. E. Woon, K. A. Peterson, T. H. Dunning, Jr., J. Chem. Phys. 110, 7667 (1999)

----- AuxJ basis set information -----
Your calculation utilizes the auxiliary basis: def2/J
   F. Weigend, Phys. Chem. Chem. Phys. 8, 1057 (2006).

================================================================================
                                        WARNINGS
                       Please study these warnings very carefully!
================================================================================

INFO   : Checking CIS options ...

INFO   : the flag for use of the SHARK integral package has been found!

================================================================================
                                       INPUT FILE
================================================================================
NAME = acrolien.955.com
|  1> ! B3LYP cc-pVDZ
|  2> !TightSCF
|  3> %scf
|  4>  ConvForced true
|  5>  convergence tight
|  6>  MaxIter 500
|  7> end
|  8>  
|  9> %tddft 
| 10>  nroots 1
| 11> end
| 12> 
| 13> # 	6866
| 14> * xyz 0 1
| 15> 		C   -1.167229  -0.290460  -0.002372
| 16> 		O   -1.484996  -1.231437  -0.751291
| 17> 		C    0.018242   0.520289  -0.216363
| 18> 		C    1.224138  -0.011790   0.125360
| 19> 		H   -1.820093   0.001975   0.873509
| 20> 		H   -0.142756   1.397311  -0.642895
| 21> 		H    1.292778  -0.983013   0.560138
| 22> 		H    2.109474   0.663441   0.102865
| 23> *
| 24> 
| 25>                          ****END OF INPUT****
================================================================================

                       ****************************
                       * Single Point Calculation *
                       ****************************

---------------------------------
CARTESIAN COORDINATES (ANGSTROEM)
---------------------------------
  C     -1.167229   -0.290460   -0.002372
  O     -1.484996   -1.231437   -0.751291
  C      0.018242    0.520289   -0.216363
  C      1.224138   -0.011790    0.125360
  H     -1.820093    0.001975    0.873509
  H     -0.142756    1.397311   -0.642895
  H      1.292778   -0.983013    0.560138
  H      2.109474    0.663441    0.102865

----------------------------
CARTESIAN COORDINATES (A.U.)
----------------------------
  NO LB      ZA    FRAG     MASS         X           Y           Z
   0 C     6.0000    0    12.011   -2.205743   -0.548890   -0.004482
   1 O     8.0000    0    15.999   -2.806236   -2.327079   -1.419734
   2 C     6.0000    0    12.011    0.034472    0.983204   -0.408867
   3 C     6.0000    0    12.011    2.313286   -0.022280    0.236896
   4 H     1.0000    0     1.008   -3.439477    0.003732    1.650693
   5 H     1.0000    0     1.008   -0.269770    2.640535   -1.214895
   6 H     1.0000    0     1.008    2.442996   -1.857625    1.058507
   7 H     1.0000    0     1.008    3.986328    1.253722    0.194387

--------------------------------
INTERNAL COORDINATES (ANGSTROEM)
--------------------------------
 C      0   0   0     0.000000000000     0.00000000     0.00000000
 O      1   0   0     1.243902427596     0.00000000     0.00000000
 C      1   2   0     1.452049441625   122.83397820     0.00000000
 C      3   1   2     1.361641595203   117.89571617   283.38756792
 H      1   2   3     1.130892195517   120.96036805   177.81969677
 H      3   1   2     0.988441951514   115.21559567   100.51987389
 H      4   3   1     1.066310215000   121.01442314   358.41953546
 H      4   3   1     1.113670849615   117.51937289   188.90372348

---------------------------
INTERNAL COORDINATES (A.U.)
---------------------------
 C      0   0   0     0.000000000000     0.00000000     0.00000000
 O      1   0   0     2.350634925476     0.00000000     0.00000000
 C      1   2   0     2.743975777584   122.83397820     0.00000000
 C      3   1   2     2.573129707489   117.89571617   283.38756792
 H      1   2   3     2.137076536517   120.96036805   177.81969677
 H      3   1   2     1.867884587639   115.21559567   100.51987389
 H      4   3   1     2.015034280152   121.01442314   358.41953546
 H      4   3   1     2.104532909104   117.51937289   188.90372348

---------------------
BASIS SET INFORMATION
---------------------
There are 3 groups of distinct atoms

 Group   1 Type C   : 17s4p1d contracted to 3s2p1d pattern {881/31/1}
 Group   2 Type O   : 17s4p1d contracted to 3s2p1d pattern {881/31/1}
 Group   3 Type H   : 4s1p contracted to 2s1p pattern {31/1}

Atom   0C    basis set group =>   1
Atom   1O    basis set group =>   2
Atom   2C    basis set group =>   1
Atom   3C    basis set group =>   1
Atom   4H    basis set group =>   3
Atom   5H    basis set group =>   3
Atom   6H    basis set group =>   3
Atom   7H    basis set group =>   3
---------------------------------
AUXILIARY/J BASIS SET INFORMATION
---------------------------------
There are 3 groups of distinct atoms

 Group   1 Type C   : 12s5p4d2f1g contracted to 6s4p3d1f1g pattern {711111/2111/211/2/1}
 Group   2 Type O   : 12s5p4d2f1g contracted to 6s4p3d1f1g pattern {711111/2111/211/2/1}
 Group   3 Type H   : 5s2p1d contracted to 3s1p1d pattern {311/2/1}

Atom   0C    basis set group =>   1
Atom   1O    basis set group =>   2
Atom   2C    basis set group =>   1
Atom   3C    basis set group =>   1
Atom   4H    basis set group =>   3
Atom   5H    basis set group =>   3
Atom   6H    basis set group =>   3
Atom   7H    basis set group =>   3
------------------------------------------------------------------------------
                           ORCA GTO INTEGRAL CALCULATION
                           -- RI-GTO INTEGRALS CHOSEN --
------------------------------------------------------------------------------
------------------------------------------------------------------------------
                   ___                                                        
                  /   \      - P O W E R E D   B Y -                         
                 /     \                                                     
                 |  |  |   _    _      __       _____    __    __             
                 |  |  |  | |  | |    /  \     |  _  \  |  |  /  |          
                  \  \/   | |  | |   /    \    | | | |  |  | /  /          
                 / \  \   | |__| |  /  /\  \   | |_| |  |  |/  /          
                |  |  |   |  __  | /  /__\  \  |    /   |      \           
                |  |  |   | |  | | |   __   |  |    \   |  |\   \          
                \     /   | |  | | |  |  |  |  | |\  \  |  | \   \       
                 \___/    |_|  |_| |__|  |__|  |_| \__\ |__|  \__/        
                                                                              
                      - O R C A' S   B I G   F R I E N D -                    
                                      &                                       
                       - I N T E G R A L  F E E D E R -                       
                                                                              
 v1 FN, 2020, v2 2021                                                         
------------------------------------------------------------------------------


Reading SHARK input file acrolien.955.SHARKINP.tmp ... ok
----------------------
SHARK INTEGRAL PACKAGE
----------------------

Number of atoms                             ...      8
Number of basis functions                   ...    100
Number of shells                            ...     60
Maximum angular momentum                    ...      2
Integral batch strategy                     ... SHARK/LIBINT Hybrid
RI-J (if used) integral strategy            ... SPLIT-RIJ (Revised 2003 algorithm where possible)
Printlevel                                  ...      1
Contraction scheme used                     ... PARTIAL GENERAL contraction
Coulomb Range Separation                    ... NOT USED
Exchange Range Separation                   ... NOT USED
Finite Nucleus Model                        ... NOT USED
Auxiliary Coulomb fitting basis             ... AVAILABLE
   # of basis functions in Aux-J            ...    240
   # of shells in Aux-J                     ...     80
   Maximum angular momentum in Aux-J        ...      4
Auxiliary J/K fitting basis                 ... NOT available
Auxiliary Correlation fitting basis         ... NOT available
Auxiliary 'external' fitting basis          ... NOT available
Integral threshold                          ...     2.500000e-11
Primitive cut-off                           ...     2.500000e-12
Primitive pair pre-selection threshold      ...     2.500000e-12

Calculating pre-screening integrals         ... done (  0.0 sec) Dimension = 60
Calculating pre-screening integrals (ORCA)  ... done (  0.3 sec) Dimension = 36
Organizing shell pair data                  ... done (  0.4 sec)
Shell pair information
Total number of shell pairs                 ...      1830
Shell pairs after pre-screening             ...      1537
Total number of primitive shell pairs       ...      2950
Primitive shell pairs kept                  ...      2309
          la=0 lb=0:    722 shell pairs
          la=1 lb=0:    509 shell pairs
          la=1 lb=1:     78 shell pairs
          la=2 lb=0:    170 shell pairs
          la=2 lb=1:     48 shell pairs
          la=2 lb=2:     10 shell pairs

Calculating one electron integrals          ... done (  0.0 sec)
Calculating RI/J V-Matrix + Cholesky decomp.... done (  2.3 sec)
Calculating Nuclear repulsion               ... done (  0.8 sec) ENN=    103.864700690986 Eh

SHARK setup successfully completed in   6.5 seconds

Maximum memory used throughout the entire GTOINT-calculation: 14.2 MB
-------------------------------------------------------------------------------
                                 ORCA SCF
-------------------------------------------------------------------------------

------------
SCF SETTINGS
------------
Hamiltonian:
 Density Functional     Method          .... DFT(GTOs)
 Exchange Functional    Exchange        .... B88
   X-Alpha parameter    XAlpha          ....  0.666667
   Becke's b parameter  XBeta           ....  0.004200
 Correlation Functional Correlation     .... LYP
 LDA part of GGA corr.  LDAOpt          .... VWN-5
 Gradients option       PostSCFGGA      .... off
 Hybrid DFT is turned on
   Fraction HF Exchange ScalHFX         ....  0.200000
   Scaling of DF-GGA-X  ScalDFX         ....  0.720000
   Scaling of DF-GGA-C  ScalDFC         ....  0.810000
   Scaling of DF-LDA-C  ScalLDAC        ....  1.000000
   Perturbative correction              ....  0.000000
   Density functional embedding theory  .... OFF
   NL short-range parameter             ....  4.800000
 RI-approximation to the Coulomb term is turned on
   Number of AuxJ basis functions       .... 240
   RIJ-COSX (HFX calculated with COS-X)).... on


General Settings:
 Integral files         IntName         .... acrolien.955
 Hartree-Fock type      HFTyp           .... RHF
 Total Charge           Charge          ....    0
 Multiplicity           Mult            ....    1
 Number of Electrons    NEL             ....   30
 Basis Dimension        Dim             ....   76
 Nuclear Repulsion      ENuc            ....    103.8647006910 Eh

Convergence Acceleration:
 DIIS                   CNVDIIS         .... on
   Start iteration      DIISMaxIt       ....    12
   Startup error        DIISStart       ....  0.200000
   # of expansion vecs  DIISMaxEq       ....     5
   Bias factor          DIISBfac        ....   1.050
   Max. coefficient     DIISMaxC        ....  10.000
 Trust-Rad. Augm. Hess. CNVTRAH         .... auto
   Auto Start mean grad. ratio tolernc. ....  1.125000
   Auto Start start iteration           ....    20
   Auto Start num. interpolation iter.  ....    10
   Max. Number of Micro iterations      ....    16
   Max. Number of Macro iterations      .... Maxiter - #DIIS iter
   Number of Davidson start vectors     ....     2
   Converg. threshold I  (grad. norm)   ....   1.000e-05
   Converg. threshold II (energy diff.) ....   1.000e-08
   Grad. Scal. Fac. for Micro threshold ....   0.100
   Minimum threshold for Micro iter.    ....   0.010
   NR start threshold (gradient norm)   ....   0.001
   Initial trust radius                 ....   0.400
   Minimum AH scaling param. (alpha)    ....   1.000
   Maximum AH scaling param. (alpha)    .... 1000.000
   Orbital update algorithm             .... Taylor
   White noise on init. David. guess    .... on
   Maximum white noise                  ....   0.010
   Quad. conv. algorithm                .... NR
 SOSCF                  CNVSOSCF        .... on
   Start iteration      SOSCFMaxIt      ....   150
   Startup grad/error   SOSCFStart      ....  0.003300
 Level Shifting         CNVShift        .... on
   Level shift para.    LevelShift      ....    0.2500
   Turn off err/grad.   ShiftErr        ....    0.0010
 Zerner damping         CNVZerner       .... off
 Static damping         CNVDamp         .... on
   Fraction old density DampFac         ....    0.7000
   Max. Damping (<1)    DampMax         ....    0.9800
   Min. Damping (>=0)   DampMin         ....    0.0000
   Turn off err/grad.   DampErr         ....    0.1000
 Fernandez-Rico         CNVRico         .... off

SCF Procedure:
 Maximum # iterations   MaxIter         ....   500
 SCF integral mode      SCFMode         .... Direct
   Integral package                     .... SHARK and LIBINT hybrid scheme
 Reset frequency        DirectResetFreq ....    20
 Integral Threshold     Thresh          ....  2.500e-11 Eh
 Primitive CutOff       TCut            ....  2.500e-12 Eh

Convergence Tolerance:
 Convergence Check Mode ConvCheckMode   .... Total+1el-Energy
 Convergence forced     ConvForced      .... 1
 Energy Change          TolE            ....  1.000e-08 Eh
 1-El. energy change                    ....  1.000e-05 Eh
 Orbital Gradient       TolG            ....  1.000e-05
 Orbital Rotation angle TolX            ....  1.000e-05
 DIIS Error             TolErr          ....  5.000e-07


Diagonalization of the overlap matrix:
Smallest eigenvalue                        ... 3.629e-03
Time for diagonalization                   ...    0.001 sec
Threshold for overlap eigenvalues          ... 1.000e-08
Number of eigenvalues below threshold      ... 0
Time for construction of square roots      ...    2.329 sec
Total time needed                          ...    2.331 sec

Time for model grid setup =    0.962 sec

------------------------------
INITIAL GUESS: MODEL POTENTIAL
------------------------------
Loading Hartree-Fock densities                     ... done
Calculating cut-offs                               ... done
Initializing the effective Hamiltonian             ... done
Setting up the integral package (SHARK)            ... done
Starting the Coulomb interaction                   ... done (   3.2 sec)
Reading the grid                                   ... done
Mapping shells                                     ... done
Starting the XC term evaluation                    ... done (   0.1 sec)
  promolecular density results
     # of electrons  =     29.998143276
     EX              =    -24.741848450
     EC              =     -0.995687357
     EX+EC           =    -25.737535807
Transforming the Hamiltonian                       ... done (   0.0 sec)
Diagonalizing the Hamiltonian                      ... done (   0.0 sec)
Back transforming the eigenvectors                 ... done (   0.0 sec)
Now organizing SCF variables                       ... done
                      ------------------
                      INITIAL GUESS DONE (   5.0 sec)
                      ------------------
-------------------
DFT GRID GENERATION
-------------------

General Integration Accuracy     IntAcc      ... 4.388
Radial Grid Type                 RadialGrid  ... OptM3 with GC (2021)
Angular Grid (max. ang.)         AngularGrid ... 4 (Lebedev-302)
Angular grid pruning method      GridPruning ... 4 (adaptive)
Weight generation scheme         WeightScheme... Becke
Basis function cutoff            BFCut       ... 1.0000e-11
Integration weight cutoff        WCut        ... 1.0000e-14
Angular grids for H and He will be reduced by one unit
Partially contracted basis set               ... off
Rotationally invariant grid construction     ... off

Total number of grid points                  ...    37391
Total number of batches                      ...      587
Average number of points per batch           ...       63
Average number of grid points per atom       ...     4674
Time for grid setup =    1.223 sec

--------------------
COSX GRID GENERATION
--------------------

GRIDX 1
-------
General Integration Accuracy     IntAcc      ... 3.816
Radial Grid Type                 RadialGrid  ... OptM3 with GC (2021)
Angular Grid (max. ang.)         AngularGrid ... 1 (Lebedev-50)
Angular grid pruning method      GridPruning ... 4 (adaptive)
Weight generation scheme         WeightScheme... Becke
Basis function cutoff            BFCut       ... 1.0000e-11
Integration weight cutoff        WCut        ... 1.0000e-14
Angular grids for H and He will be reduced by one unit
Partially contracted basis set               ... on
Rotationally invariant grid construction     ... off

Total number of grid points                  ...     4804
Total number of batches                      ...       78
Average number of points per batch           ...       61
Average number of grid points per atom       ...      600
UseSFitting                                  ... on

GRIDX 2
-------
General Integration Accuracy     IntAcc      ... 4.020
Radial Grid Type                 RadialGrid  ... OptM3 with GC (2021)
Angular Grid (max. ang.)         AngularGrid ... 2 (Lebedev-110)
Angular grid pruning method      GridPruning ... 4 (adaptive)
Weight generation scheme         WeightScheme... Becke
Basis function cutoff            BFCut       ... 1.0000e-11
Integration weight cutoff        WCut        ... 1.0000e-14
Angular grids for H and He will be reduced by one unit
Partially contracted basis set               ... on
Rotationally invariant grid construction     ... off

Total number of grid points                  ...    10570
Total number of batches                      ...      168
Average number of points per batch           ...       62
Average number of grid points per atom       ...     1321
UseSFitting                                  ... on

GRIDX 3
-------
General Integration Accuracy     IntAcc      ... 4.338
Radial Grid Type                 RadialGrid  ... OptM3 with GC (2021)
Angular Grid (max. ang.)         AngularGrid ... 3 (Lebedev-194)
Angular grid pruning method      GridPruning ... 4 (adaptive)
Weight generation scheme         WeightScheme... Becke
Basis function cutoff            BFCut       ... 1.0000e-11
Integration weight cutoff        WCut        ... 1.0000e-14
Angular grids for H and He will be reduced by one unit
Partially contracted basis set               ... on
Rotationally invariant grid construction     ... off

Total number of grid points                  ...    23316
Total number of batches                      ...      369
Average number of points per batch           ...       63
Average number of grid points per atom       ...     2914
UseSFitting                                  ... on

Time for X-Grid setup             =    7.639 sec

 re-compute Schwartz prescreening matrix in partically contracted basis (1) ...done (   0.084 sec)
--------------
SCF ITERATIONS
--------------
ITER       Energy         Delta-E        Max-DP      RMS-DP      [F,P]     Damp
               ***  Starting incremental Fock matrix formation  ***
  0   -191.6498743019   0.000000000000 0.08388065  0.00381397  0.2410447 0.7000
  1   -191.7147974839  -0.064923181974 0.04203072  0.00239058  0.0820025 0.7000
                               ***Turning on DIIS***
  2   -191.7363187884  -0.021521304512 0.05571756  0.00332172  0.0342162 0.0000
  3   -191.7762455300  -0.039926741661 0.03038648  0.00176649  0.0393297 0.0000
  4   -191.7823094866  -0.006063956544 0.01062379  0.00053777  0.0219747 0.0000
                      *** Initiating the SOSCF procedure ***
                           *** Shutting down DIIS ***
                      *** Re-Reading the Fockian *** 
                      *** Removing any level shift *** 
ITER      Energy       Delta-E        Grad      Rot      Max-DP    RMS-DP
  5   -191.78340045  -0.0010909668  0.000752  0.000752  0.003047  0.000140
               *** Restarting incremental Fock matrix formation ***
  6   -191.78338145   0.0000190083  0.000433  0.001329  0.001898  0.000098
  7   -191.78337931   0.0000021353  0.000817  0.000796  0.000778  0.000046
  8   -191.78338426  -0.0000049483  0.000153  0.000214  0.000480  0.000028
  9   -191.78338417   0.0000000843  0.000113  0.000159  0.000295  0.000013
 10   -191.78338457  -0.0000003952  0.000037  0.000112  0.000149  0.000005
 11   -191.78338454   0.0000000246  0.000052  0.000064  0.000094  0.000003
                  ***Gradient check signals convergence***
              ***Rediagonalizing the Fockian in SOSCF/NRSCF***

               *****************************************************
               *                     SUCCESS                       *
               *           SCF CONVERGED AFTER  12 CYCLES          *
               *****************************************************

Old exchange energy                            =     -5.027984717 Eh
New exchange energy                            =     -5.027977512 Eh
Exchange energy change after final integration =      0.000007205 Eh
Total energy after final integration           =   -191.783377377 Eh
Final COS-X integration done in                =     1.497 sec

----------------
TOTAL SCF ENERGY
----------------

Total Energy       :         -191.78337738 Eh           -5218.69101 eV

Components:
Nuclear Repulsion  :          103.86470069 Eh            2826.30219 eV
Electronic Energy  :         -295.64807807 Eh           -8044.99320 eV
One Electron Energy:         -464.93793604 Eh          -12651.60443 eV
Two Electron Energy:          169.28985797 Eh            4606.61123 eV
Max COSX asymmetry :            0.00000178 Eh               0.00005 eV

Virial components:
Potential Energy   :         -382.45869734 Eh          -10407.23025 eV
Kinetic Energy     :          190.67531996 Eh            5188.53924 eV
Virial Ratio       :            2.00581123


DFT components:
N(Alpha)           :       15.000008768010 electrons
N(Beta)            :       15.000008768010 electrons
N(Total)           :       30.000017536019 electrons
E(X)               :      -19.988160797852 Eh       
E(C)               :       -1.183350114900 Eh       
E(XC)              :      -21.171510912752 Eh       
DFET-embed. en.    :        0.000000000000 Eh       

---------------
SCF CONVERGENCE
---------------

  Last Energy change         ...   -3.7220e-08  Tolerance :   1.0000e-08
  Last MAX-Density change    ...    1.7764e-15  Tolerance :   1.0000e-07
  Last RMS-Density change    ...    4.0285e-17  Tolerance :   5.0000e-09
  Last Orbital Gradient      ...    9.2271e-07  Tolerance :   1.0000e-05
  Last Orbital Rotation      ...    2.8347e-06  Tolerance :   1.0000e-05

             **** THE GBW FILE WAS UPDATED (acrolien.955.gbw) ****
             **** DENSITY acrolien.955.scfp WAS UPDATED ****
             **** ENERGY FILE WAS UPDATED (acrolien.955.en.tmp) ****
             **** THE GBW FILE WAS UPDATED (acrolien.955.gbw) ****
             **** DENSITY acrolien.955.scfp WAS UPDATED ****
----------------
ORBITAL ENERGIES
----------------

  NO   OCC          E(Eh)            E(eV) 
   0   2.0000     -19.142233      -520.8866 
   1   2.0000     -10.280444      -279.7451 
   2   2.0000     -10.210258      -277.8353 
   3   2.0000     -10.200806      -277.5781 
   4   2.0000      -1.031243       -28.0615 
   5   2.0000      -0.800516       -21.7831 
   6   2.0000      -0.657615       -17.8946 
   7   2.0000      -0.566899       -15.4261 
   8   2.0000      -0.500828       -13.6282 
   9   2.0000      -0.450853       -12.2683 
  10   2.0000      -0.439519       -11.9599 
  11   2.0000      -0.398411       -10.8413 
  12   2.0000      -0.365135        -9.9358 
  13   2.0000      -0.284658        -7.7459 
  14   2.0000      -0.252873        -6.8810 
  15   0.0000      -0.038928        -1.0593 
  16   0.0000      -0.018106        -0.4927 
  17   0.0000       0.082531         2.2458 
  18   0.0000       0.095620         2.6020 
  19   0.0000       0.106917         2.9094 
  20   0.0000       0.141564         3.8522 
  21   0.0000       0.250428         6.8145 
  22   0.0000       0.273869         7.4524 
  23   0.0000       0.305955         8.3255 
  24   0.0000       0.445339        12.1183 
  25   0.0000       0.475084        12.9277 
  26   0.0000       0.481975        13.1152 
  27   0.0000       0.494130        13.4460 
  28   0.0000       0.515478        14.0269 
  29   0.0000       0.543437        14.7877 
  30   0.0000       0.564964        15.3734 
  31   0.0000       0.590361        16.0645 
  32   0.0000       0.619137        16.8476 
  33   0.0000       0.652173        17.7465 
  34   0.0000       0.661443        17.9988 
  35   0.0000       0.694760        18.9054 
  36   0.0000       0.785887        21.3851 
  37   0.0000       0.839512        22.8443 
  38   0.0000       0.895612        24.3708 
  39   0.0000       0.920539        25.0492 
  40   0.0000       0.966554        26.3013 
  41   0.0000       0.990313        26.9478 
  42   0.0000       1.035388        28.1743 
  43   0.0000       1.063543        28.9405 
  44   0.0000       1.107957        30.1490 
  45   0.0000       1.150655        31.3109 
  46   0.0000       1.297673        35.3115 
  47   0.0000       1.347583        36.6696 
  48   0.0000       1.420609        38.6567 
  49   0.0000       1.454235        39.5717 
  50   0.0000       1.483145        40.3584 
  51   0.0000       1.550820        42.2000 
  52   0.0000       1.582064        43.0501 
  53   0.0000       1.619635        44.0725 
  54   0.0000       1.626027        44.2464 
  55   0.0000       1.670361        45.4528 
  56   0.0000       1.706111        46.4256 
  57   0.0000       1.734234        47.1909 
  58   0.0000       1.752777        47.6955 
  59   0.0000       1.825089        49.6632 
  60   0.0000       1.930929        52.5433 
  61   0.0000       1.965240        53.4769 
  62   0.0000       2.066956        56.2447 
  63   0.0000       2.168688        59.0130 
  64   0.0000       2.187901        59.5358 
  65   0.0000       2.265667        61.6519 
  66   0.0000       2.332296        63.4650 
  67   0.0000       2.426286        66.0226 
  68   0.0000       2.519477        68.5585 
  69   0.0000       2.676198        72.8231 
  70   0.0000       2.720827        74.0375 
  71   0.0000       2.773175        75.4619 
  72   0.0000       3.039867        82.7190 
  73   0.0000       3.086891        83.9986 
  74   0.0000       3.290712        89.5448 
  75   0.0000       3.395794        92.4043 

                    ********************************
                    * MULLIKEN POPULATION ANALYSIS *
                    ********************************

-----------------------
MULLIKEN ATOMIC CHARGES
-----------------------
   0 C :    0.149944
   1 O :   -0.210681
   2 C :   -0.001610
   3 C :    0.031648
   4 H :    0.000356
   5 H :   -0.029373
   6 H :    0.022408
   7 H :    0.037307
Sum of atomic charges:   -0.0000000

--------------------------------
MULLIKEN REDUCED ORBITAL CHARGES
--------------------------------
  0 C s       :     3.124761  s :     3.124761
      pz      :     0.850980  p :     2.586313
      px      :     0.900507
      py      :     0.834825
      dz2     :     0.029815  d :     0.138982
      dxz     :     0.025465
      dyz     :     0.024413
      dx2y2   :     0.024651
      dxy     :     0.034638
  1 O s       :     3.776409  s :     3.776409
      pz      :     1.459179  p :     4.417266
      px      :     1.628172
      py      :     1.329915
      dz2     :     0.003089  d :     0.017006
      dxz     :     0.002229
      dyz     :     0.005365
      dx2y2   :     0.003565
      dxy     :     0.002758
  2 C s       :     3.084056  s :     3.084056
      pz      :     0.970951  p :     2.857322
      px      :     0.955381
      py      :     0.930991
      dz2     :     0.004554  d :     0.060232
      dxz     :     0.011348
      dyz     :     0.005063
      dx2y2   :     0.019824
      dxy     :     0.019443
  3 C s       :     3.082255  s :     3.082255
      pz      :     0.969205  p :     2.842540
      px      :     0.955283
      py      :     0.918053
      dz2     :     0.002277  d :     0.043556
      dxz     :     0.007270
      dyz     :     0.003831
      dx2y2   :     0.014889
      dxy     :     0.015289
  4 H s       :     0.974140  s :     0.974140
      pz      :     0.012542  p :     0.025504
      px      :     0.009142
      py      :     0.003820
  5 H s       :     0.994570  s :     0.994570
      pz      :     0.010453  p :     0.034803
      px      :     0.006445
      py      :     0.017905
  6 H s       :     0.946696  s :     0.946696
      pz      :     0.008352  p :     0.030897
      px      :     0.005322
      py      :     0.017222
  7 H s       :     0.933726  s :     0.933726
      pz      :     0.005396  p :     0.028967
      px      :     0.013616
      py      :     0.009955


                     *******************************
                     * LOEWDIN POPULATION ANALYSIS *
                     *******************************

----------------------
LOEWDIN ATOMIC CHARGES
----------------------
   0 C :   -0.002298
   1 O :   -0.025417
   2 C :   -0.033123
   3 C :   -0.006817
   4 H :    0.001191
   5 H :    0.006239
   6 H :    0.023698
   7 H :    0.036528

-------------------------------
LOEWDIN REDUCED ORBITAL CHARGES
-------------------------------
  0 C s       :     2.875519  s :     2.875519
      pz      :     0.919045  p :     2.761990
      px      :     0.947752
      py      :     0.895192
      dz2     :     0.073529  d :     0.364790
      dxz     :     0.063168
      dyz     :     0.071979
      dx2y2   :     0.058854
      dxy     :     0.097261
  1 O s       :     3.527496  s :     3.527496
      pz      :     1.485528  p :     4.469168
      px      :     1.602312
      py      :     1.381328
      dz2     :     0.004257  d :     0.028753
      dxz     :     0.003276
      dyz     :     0.010897
      dx2y2   :     0.005420
      dxy     :     0.004904
  2 C s       :     2.810223  s :     2.810223
      pz      :     0.946237  p :     3.032977
      px      :     1.055719
      py      :     1.031020
      dz2     :     0.014770  d :     0.189923
      dxz     :     0.032074
      dyz     :     0.017560
      dx2y2   :     0.060973
      dxy     :     0.064547
  3 C s       :     2.853332  s :     2.853332
      pz      :     0.952994  p :     3.014120
      px      :     1.038328
      py      :     1.022798
      dz2     :     0.011126  d :     0.139365
      dxz     :     0.017289
      dyz     :     0.013415
      dx2y2   :     0.048487
      dxy     :     0.049048
  4 H s       :     0.925375  s :     0.925375
      pz      :     0.035440  p :     0.073433
      px      :     0.025817
      py      :     0.012176
  5 H s       :     0.882480  s :     0.882480
      pz      :     0.032239  p :     0.111281
      px      :     0.025121
      py      :     0.053922
  6 H s       :     0.888276  s :     0.888276
      pz      :     0.024883  p :     0.088026
      px      :     0.016010
      py      :     0.047133
  7 H s       :     0.886709  s :     0.886709
      pz      :     0.015691  p :     0.076762
      px      :     0.033903
      py      :     0.027168


                      *****************************
                      * MAYER POPULATION ANALYSIS *
                      *****************************

  NA   - Mulliken gross atomic population
  ZA   - Total nuclear charge
  QA   - Mulliken gross atomic charge
  VA   - Mayer's total valence
  BVA  - Mayer's bonded valence
  FA   - Mayer's free valence

  ATOM       NA         ZA         QA         VA         BVA        FA
  0 C      5.8501     6.0000     0.1499     4.1601     4.1601    -0.0000
  1 O      8.2107     8.0000    -0.2107     2.2780     2.2780    -0.0000
  2 C      6.0016     6.0000    -0.0016     3.9966     3.9966     0.0000
  3 C      5.9684     6.0000     0.0316     3.9933     3.9933    -0.0000
  4 H      0.9996     1.0000     0.0004     0.9614     0.9614     0.0000
  5 H      1.0294     1.0000    -0.0294     0.9932     0.9932    -0.0000
  6 H      0.9776     1.0000     0.0224     0.9836     0.9836    -0.0000
  7 H      0.9627     1.0000     0.0373     0.9695     0.9695    -0.0000

  Mayer bond orders larger than 0.100000
B(  0-C ,  1-O ) :   2.1923 B(  0-C ,  2-C ) :   1.0137 B(  0-C ,  4-H ) :   0.9125 
B(  2-C ,  3-C ) :   2.0133 B(  2-C ,  5-H ) :   0.9456 B(  3-C ,  6-H ) :   0.9455 
B(  3-C ,  7-H ) :   0.9490 

-------
TIMINGS
-------

Total SCF time: 0 days 0 hours 2 min 46 sec 

Total time                  ....     166.269 sec
Sum of individual times     ....     129.829 sec  ( 78.1%)

Fock matrix formation       ....     114.128 sec  ( 68.6%)
  Split-RI-J                ....       2.669 sec  (  2.3% of F)
  Chain of spheres X        ....       8.351 sec  (  7.3% of F)
  XC integration            ....      32.480 sec  ( 28.5% of F)
    Basis function eval.    ....       1.629 sec  (  5.0% of XC)
    Density eval.           ....       0.638 sec  (  2.0% of XC)
    XC-Functional eval.     ....       0.491 sec  (  1.5% of XC)
    XC-Potential eval.      ....       0.602 sec  (  1.9% of XC)
Diagonalization             ....       0.007 sec  (  0.0%)
Density matrix formation    ....       0.001 sec  (  0.0%)
Population analysis         ....       0.014 sec  (  0.0%)
Initial guess               ....       4.016 sec  (  2.4%)
Orbital Transformation      ....       0.000 sec  (  0.0%)
Orbital Orthonormalization  ....       0.000 sec  (  0.0%)
DIIS solution               ....       1.827 sec  (  1.1%)
SOSCF solution              ....       0.011 sec  (  0.0%)
Grid generation             ....       9.825 sec  (  5.9%)

Maximum memory used throughout the entire SCF-calculation: 51.7 MB
------------------------------------------------------------------------------
                        ORCA TD-DFT/TDA CALCULATION
------------------------------------------------------------------------------

Input orbitals are from        ... acrolien.955.gbw
CI-vector output               ... acrolien.955.cis
Tamm-Dancoff approximation     ... operative
CIS-Integral strategy          ... AO-integrals
Integral handling              ... AO integral Direct
Max. core memory used          ... 512 MB
Reference state                ... RHF
Generation of triplets         ... off
Follow IRoot                   ... off
Number of operators            ... 1
Orbital ranges used for CIS calculation:
 Operator 0:  Orbitals   4... 14  to  15... 75
XAS localization array:
 Operator 0:  Orbitals  -1... -1

-------------------
XC-INTEGRATION GRID
-------------------

General Integration Accuracy     IntAcc      ... 3.467
Radial Grid Type                 RadialGrid  ... OptM3 with GC (2021)
Angular Grid (max. ang.)         AngularGrid ... 1 (Lebedev-50)
Angular grid pruning method      GridPruning ... 4 (adaptive)
Weight generation scheme         WeightScheme... Becke
Basis function cutoff            BFCut       ... 1.0000e-11
Integration weight cutoff        WCut        ... 1.0000e-14
Angular grids for H and He will be reduced by one unit
Partially contracted basis set               ... off
Rotationally invariant grid construction     ... off

Total number of grid points                  ...     5502
Total number of batches                      ...       89
Average number of points per batch           ...       61
Average number of grid points per atom       ...      688

---------------------
COSX-INTEGRATION GRID
---------------------

General Integration Accuracy     IntAcc      ... 3.067
Radial Grid Type                 RadialGrid  ... OptM3 with GC (2021)
Angular Grid (max. ang.)         AngularGrid ... 1 (Lebedev-50)
Angular grid pruning method      GridPruning ... 4 (adaptive)
Weight generation scheme         WeightScheme... Becke
Basis function cutoff            BFCut       ... 1.0000e-11
Integration weight cutoff        WCut        ... 1.0000e-14
Angular grids for H and He will be reduced by one unit
Partially contracted basis set               ... on
Rotationally invariant grid construction     ... off

Total number of grid points                  ...     2513
Total number of batches                      ...       44
Average number of points per batch           ...       57
Average number of grid points per atom       ...      314

---------------
TD-DFT XC SETUP
---------------

DFT calculation                         ... on
Name of the grid file                   ... acrolien.955.grid_cis.tmp
Exchange functional (TD-DFT)            ... B88
   X-Alpha parameter    XAlpha (TD-DFT) ...  0.666667
   Becke's b parameter  XBeta (TD-DFT)  ...  0.004200
Correlation functional (TD-DFT)         ... LYP
 LDA part of GGA corr.  LDAOpt (TD-DFT) ... VWN-5
Hybrid DFT                              ... on
   Exchange mixing (TD-DFT)             ...  0.200
   GGA exch. scaling (TD-DFT)           ...  0.720
   GGA corr. scaling (TD-DFT)           ...  0.810

Building densities             ... done
Calculating rho(r) on the grid ... done
Building xc-kernel on the grid ... done
                    *** TD-DFT CALCULATION INITIALIZED ***

------------------------
DAVIDSON-DIAGONALIZATION
------------------------

Dimension of the eigenvalue problem            ...    671
Number of roots to be determined               ...      1
Maximum size of the expansion space            ...     10
Maximum number of iterations                   ...    100
Convergence tolerance for the residual         ...    2.500e-07
Convergence tolerance for the energies         ...    2.500e-07
Orthogonality tolerance                        ...    1.000e-14
Level Shift                                    ...    0.000e+00
Constructing the preconditioner                ... o.k.
Building the initial guess                     ... o.k.
Number of trial vectors determined             ...     10


                       ****Iteration    0****

   Memory handling for direct AO based CIS:
   Memory per vector needed      ...     1 MB
   Memory needed                 ...     0 MB
   Memory available              ...   512 MB
   Number of vectors per batch   ...   512
   Number of batches             ...     1
   Time for densities:            0.000
   Time for RI-J (Direct):        0.070
   Time for K (COSX):             1.904
   Time for XC-Integration:       0.082
   Time for Sigma-Completion:     0.001
   Size of expansion space: 3
   Lowest Energy          :     0.145422154364
   Maximum Energy change  :     0.145422154364 (vector 0)
   Maximum residual norm  :     0.001467682546

                       ****Iteration    1****
   Time for densities:            0.000
   Time for RI-J (Direct):        0.055
   Time for K (COSX):             1.393
   Time for XC-Integration:       0.043
   Time for Sigma-Completion:     0.000
   Size of expansion space: 4
   Lowest Energy          :     0.143714626126
   Maximum Energy change  :     0.001707528238 (vector 0)
   Maximum residual norm  :     0.000100396989

                       ****Iteration    2****
   Time for densities:            0.000
   Time for RI-J (Direct):        0.054
   Time for K (COSX):             2.320
   Time for XC-Integration:       0.043
   Time for Sigma-Completion:     0.000
   Size of expansion space: 5
   Lowest Energy          :     0.143615118505
   Maximum Energy change  :     0.000099507621 (vector 0)
   Maximum residual norm  :     0.000013551440

                       ****Iteration    3****
   Time for densities:            0.000
   Time for RI-J (Direct):        0.054
   Time for K (COSX):             0.194
   Time for XC-Integration:       0.043
   Time for Sigma-Completion:     0.000
   Size of expansion space: 6
   Lowest Energy          :     0.143600721147
   Maximum Energy change  :     0.000014397357 (vector 0)
   Maximum residual norm  :     0.000001434445

                       ****Iteration    4****
   Time for densities:            0.000
   Time for RI-J (Direct):        0.055
   Time for K (COSX):             1.073
   Time for XC-Integration:       0.044
   Time for Sigma-Completion:     0.000
   Size of expansion space: 7
   Lowest Energy          :     0.143599262379
   Maximum Energy change  :     0.000001458768 (vector 0)
   Maximum residual norm  :     0.000000070666

      *** CONVERGENCE OF RESIDUAL NORM REACHED ***

Storing the converged CI vectors               ... acrolien.955.cis1

                 *** DAVIDSON DONE ***

Total time for solving the CIS problem:    16.603sec

------------------------------------
TD-DFT/TDA EXCITED STATES (SINGLETS)
------------------------------------

the weight of the individual excitations are printed if larger than 1.0e-02

STATE  1:  E=   0.143599 au      3.908 eV    31516.4 cm**-1 <S**2> =   0.000000
    13a ->  15a  :     0.014543 (c= -0.12059508)
    14a ->  15a  :     0.930799 (c=  0.96477906)
    14a ->  16a  :     0.049194 (c= -0.22179715)


-----------------------------
TD-DFT/TDA-EXCITATION SPECTRA
-----------------------------

Center of mass = ( -0.7215, -0.5391, -0.4126)
Calculating the Dipole integrals                  ... done
Transforming integrals                            ... done
Calculating the Linear Momentum integrals         ... done
Transforming integrals                            ... done
Calculating angular momentum integrals            ... done
Transforming integrals                            ... done

-----------------------------------------------------------------------------
         ABSORPTION SPECTRUM VIA TRANSITION ELECTRIC DIPOLE MOMENTS
-----------------------------------------------------------------------------
State   Energy    Wavelength  fosc         T2        TX        TY        TZ  
        (cm-1)      (nm)                 (au**2)    (au)      (au)      (au) 
-----------------------------------------------------------------------------
   1   31516.4    317.3   0.000138474   0.00145  -0.01928  -0.03277   0.00070

-----------------------------------------------------------------------------
         ABSORPTION SPECTRUM VIA TRANSITION VELOCITY DIPOLE MOMENTS
-----------------------------------------------------------------------------
State   Energy    Wavelength   fosc        P2         PX        PY        PZ  
        (cm-1)      (nm)                 (au**2)     (au)      (au)      (au) 
-----------------------------------------------------------------------------
   1   31516.4    317.3   0.000220323   0.00005   0.00280  -0.00013  -0.00629

-------------------------------------------------------------------
                             CD SPECTRUM
-------------------------------------------------------------------
State  Energy     Wavelength     R         MX        MY        MZ   
       (cm-1)       (nm)     (1e40*cgs)   (au)      (au)      (au)  
-------------------------------------------------------------------
   1   31516.4    317.3     -7.01182   0.13913   0.37870   0.31540

-------------------------------------------------------------------
         CD SPECTRUM VIA TRANSITION VELOCITY DIPOLE MOMENTS        
-------------------------------------------------------------------
State  Energy     Wavelength     R         MX        MY        MZ   
       (cm-1)       (nm)     (1e40*cgs)   (au)      (au)      (au)  
-------------------------------------------------------------------
   1   31516.4    317.3     -5.39862   0.13913   0.37870   0.31540

Total run time:       21.667 sec

           *** ORCA-CIS/TD-DFT FINISHED WITHOUT ERROR ***

Maximum memory used throughout the entire CIS-calculation: 48.6 MB

-----------------------
CIS/TD-DFT TOTAL ENERGY
-----------------------

    E(SCF)  =   -191.783377377 Eh
    DE(CIS) =      0.143599262 Eh (Root  1)
    ----------------------------- ---------
    E(tot)  =   -191.639778114 Eh


-------------------------   --------------------
FINAL SINGLE POINT ENERGY      -191.639778114251
-------------------------   --------------------


                            ***************************************
                            *     ORCA property calculations      *
                            ***************************************

                                    ---------------------
                                    Active property flags
                                    ---------------------
   (+) Dipole Moment


------------------------------------------------------------------------------
                       ORCA ELECTRIC PROPERTIES CALCULATION
------------------------------------------------------------------------------

Dipole Moment Calculation                       ... on
Quadrupole Moment Calculation                   ... off
Polarizability Calculation                      ... off
GBWName                                         ... acrolien.955.gbw
Electron density                                ... acrolien.955.scfp
The origin for moment calculation is the CENTER OF MASS  = (-0.721486, -0.539121 -0.412591)

-------------
DIPOLE MOMENT
-------------
                                X             Y             Z
Electronic contribution:     -2.32762      -1.29719      -1.13519
Nuclear contribution   :      2.76686       2.06958       1.64983
                        -----------------------------------------
Total Dipole Moment    :      0.43924       0.77239       0.51464
                        -----------------------------------------
Magnitude (a.u.)       :      1.02683
Magnitude (Debye)      :      2.60999



--------------------
Rotational spectrum 
--------------------
 
Rotational constants in cm-1:     0.866028     0.182506     0.165072 
Rotational constants in MHz : 25962.851510  5471.400759  4948.748641 

 Dipole components along the rotational axes: 
x,y,z [a.u.] :     0.822606    -0.551025     0.272147 
x,y,z [Debye]:     2.090898    -1.400594     0.691744 

 

Timings for individual modules:

Sum of individual times         ...      194.773 sec (=   3.246 min)
GTO integral calculation        ...        6.753 sec (=   0.113 min)   3.5 %
SCF iterations                  ...      166.279 sec (=   2.771 min)  85.4 %
CIS module                      ...       21.742 sec (=   0.362 min)  11.2 %
                             ****ORCA TERMINATED NORMALLY****
TOTAL RUN TIME: 0 days 0 hours 3 minutes 20 seconds 554 msec
