
                                 *****************
                                 * O   R   C   A *
                                 *****************

                                            #,                                       
                                            ###                                      
                                            ####                                     
                                            #####                                    
                                            ######                                   
                                           ########,                                 
                                     ,,################,,,,,                         
                               ,,#################################,,                 
                          ,,##########################################,,             
                       ,#########################################, ''#####,          
                    ,#############################################,,   '####,        
                  ,##################################################,,,,####,       
                ,###########''''           ''''###############################       
              ,#####''   ,,,,##########,,,,          '''####'''          '####       
            ,##' ,,,,###########################,,,                        '##       
           ' ,,###''''                  '''############,,,                           
         ,,##''                                '''############,,,,        ,,,,,,###''
      ,#''                                            '''#######################'''  
     '                                                          ''''####''''         
             ,#######,   #######,   ,#######,      ##                                
            ,#'     '#,  ##    ##  ,#'     '#,    #''#        ######   ,####,        
            ##       ##  ##   ,#'  ##            #'  '#       #        #'  '#        
            ##       ##  #######   ##           ,######,      #####,   #    #        
            '#,     ,#'  ##    ##  '#,     ,#' ,#      #,         ##   #,  ,#        
             '#######'   ##     ##  '#######'  #'      '#     #####' # '####'        



                  #######################################################
                  #                        -***-                        #
                  #          Department of theory and spectroscopy      #
                  #    Directorship and core code : Frank Neese         #
                  #        Max Planck Institute fuer Kohlenforschung    #
                  #                Kaiser Wilhelm Platz 1               #
                  #                 D-45470 Muelheim/Ruhr               #
                  #                      Germany                        #
                  #                                                     #
                  #                  All rights reserved                #
                  #                        -***-                        #
                  #######################################################


                         Program Version 5.0.3 -  RELEASE  -


 With contributions from (in alphabetic order):
   Daniel Aravena         : Magnetic Suceptibility
   Michael Atanasov       : Ab Initio Ligand Field Theory (pilot matlab implementation)
   Alexander A. Auer      : GIAO ZORA, VPT2 properties, NMR spectrum
   Ute Becker             : Parallelization
   Giovanni Bistoni       : ED, misc. LED, open-shell LED, HFLD
   Martin Brehm           : Molecular dynamics
   Dmytro Bykov           : SCF Hessian
   Vijay G. Chilkuri      : MRCI spin determinant printing, contributions to CSF-ICE
   Dipayan Datta          : RHF DLPNO-CCSD density
   Achintya Kumar Dutta   : EOM-CC, STEOM-CC
   Dmitry Ganyushin       : Spin-Orbit,Spin-Spin,Magnetic field MRCI
   Miquel Garcia          : C-PCM and meta-GGA Hessian, CC/C-PCM, Gaussian charge scheme
   Yang Guo               : DLPNO-NEVPT2, F12-NEVPT2, CIM, IAO-localization
   Andreas Hansen         : Spin unrestricted coupled pair/coupled cluster methods
   Benjamin Helmich-Paris : MC-RPA, TRAH-SCF, COSX integrals
   Lee Huntington         : MR-EOM, pCC
   Robert Izsak           : Overlap fitted RIJCOSX, COSX-SCS-MP3, EOM
   Marcus Kettner         : VPT2
   Christian Kollmar      : KDIIS, OOCD, Brueckner-CCSD(T), CCSD density, CASPT2, CASPT2-K
   Simone Kossmann        : Meta GGA functionals, TD-DFT gradient, OOMP2, MP2 Hessian
   Martin Krupicka        : Initial AUTO-CI
   Lucas Lang             : DCDCAS
   Marvin Lechner         : AUTO-CI (C++ implementation), FIC-MRCC
   Dagmar Lenk            : GEPOL surface, SMD
   Dimitrios Liakos       : Extrapolation schemes; Compound Job, initial MDCI parallelization
   Dimitrios Manganas     : Further ROCIS development; embedding schemes
   Dimitrios Pantazis     : SARC Basis sets
   Anastasios Papadopoulos: AUTO-CI, single reference methods and gradients
   Taras Petrenko         : DFT Hessian,TD-DFT gradient, ASA, ECA, R-Raman, ABS, FL, XAS/XES, NRVS
   Peter Pinski           : DLPNO-MP2, DLPNO-MP2 Gradient
   Christoph Reimann      : Effective Core Potentials
   Marius Retegan         : Local ZFS, SOC
   Christoph Riplinger    : Optimizer, TS searches, QM/MM, DLPNO-CCSD(T), (RO)-DLPNO pert. Triples
   Tobias Risthaus        : Range-separated hybrids, TD-DFT gradient, RPA, STAB
   Michael Roemelt        : Original ROCIS implementation
   Masaaki Saitow         : Open-shell DLPNO-CCSD energy and density
   Barbara Sandhoefer     : DKH picture change effects
   Avijit Sen             : IP-ROCIS
   Kantharuban Sivalingam : CASSCF convergence, NEVPT2, FIC-MRCI
   Bernardo de Souza      : ESD, SOC TD-DFT
   Georgi Stoychev        : AutoAux, RI-MP2 NMR, DLPNO-MP2 response
   Willem Van den Heuvel  : Paramagnetic NMR
   Boris Wezisla          : Elementary symmetry handling
   Frank Wennmohs         : Technical directorship


 We gratefully acknowledge several colleagues who have allowed us to
 interface, adapt or use parts of their codes:
   Stefan Grimme, W. Hujo, H. Kruse, P. Pracht,  : VdW corrections, initial TS optimization,
                  C. Bannwarth, S. Ehlert          DFT functionals, gCP, sTDA/sTD-DF
   Ed Valeev, F. Pavosevic, A. Kumar             : LibInt (2-el integral package), F12 methods
   Garnet Chan, S. Sharma, J. Yang, R. Olivares  : DMRG
   Ulf Ekstrom                                   : XCFun DFT Library
   Mihaly Kallay                                 : mrcc  (arbitrary order and MRCC methods)
   Jiri Pittner, Ondrej Demel                    : Mk-CCSD
   Frank Weinhold                                : gennbo (NPA and NBO analysis)
   Christopher J. Cramer and Donald G. Truhlar   : smd solvation model
   Lars Goerigk                                  : TD-DFT with DH, B97 family of functionals
   V. Asgeirsson, H. Jonsson                     : NEB implementation
   FAccTs GmbH                                   : IRC, NEB, NEB-TS, DLPNO-Multilevel, CI-OPT
                                                   MM, QMMM, 2- and 3-layer-ONIOM, Crystal-QMMM,
                                                   LR-CPCM, SF, NACMEs, symmetry and pop. for TD-DFT,
                                                   nearIR, NL-DFT gradient (VV10), updates on ESD,
                                                   ML-optimized integration grids
   S Lehtola, MJT Oliveira, MAL Marques          : LibXC Library
   Liviu Ungur et al                             : ANISO software


 Your calculation uses the libint2 library for the computation of 2-el integrals
 For citations please refer to: http://libint.valeyev.net

 Your ORCA version has been built with support for libXC version: 5.1.0
 For citations please refer to: https://tddft.org/programs/libxc/

 This ORCA versions uses:
   CBLAS   interface :  Fast vector & matrix operations
   LAPACKE interface :  Fast linear algebra routines
   SCALAPACK package :  Parallel linear algebra routines
   Shared memory     :  Shared parallel matrices
   BLAS/LAPACK       :  OpenBLAS 0.3.15  USE64BITINT DYNAMIC_ARCH NO_AFFINITY Haswell SINGLE_THREADED
        Core in use  :  Haswell
   Copyright (c) 2011-2014, The OpenBLAS Project


================================================================================

----- Orbital basis set information -----
Your calculation utilizes the basis: cc-pVDZ 
       H, B-Ne : Obtained from the ccRepo (grant-hill.group.shef.ac.uk/ccrepo) Feb. 2017
                 T. H. Dunning, Jr., J. Chem. Phys. 90, 1007 (1989)
            He : Obtained from the ccRepo (grant-hill.group.shef.ac.uk/ccrepo) Feb. 2017
                 D. E. Woon, T. H. Dunning, Jr., J. Chem. Phys. 100, 2975 (1994)
  Li-Be, Na-Mg : Obtained from the ccRepo (grant-hill.group.shef.ac.uk/ccrepo) Feb. 2017
                 B. P. Prascher, D. E. Woon, K. A. Peterson, T. H. Dunning, Jr., A. K. Wilson, Theor. Chem. Acc. 128, 69 (2011)
         Al-Ar : Obtained from the ccRepo (grant-hill.group.shef.ac.uk/ccrepo) Feb. 2017
                 D. E. Woon, T. H. Dunning, Jr., J. Chem. Phys. 98, 1358 (1993)
            Ca : Obtained from the Peterson Research Group Website (tyr0.chem.wsu.edu/~kipeters) Feb. 2017
                 J. Koput, K. A. Peterson, J. Phys. Chem. 106, 9595 (2002)
         Sc-Zn : Obtained from the ccRepo (grant-hill.group.shef.ac.uk/ccrepo) Feb. 2017
                 N. B. Balabanov, K. A. Peterson, J. Chem. Phys. 123, 064107 (2005)
                 N. B. Balabanov, K. A. Peterson, J. Chem. Phys. 125, 074110 (2006)
         Ga-Kr : Obtained from the ccRepo (grant-hill.group.shef.ac.uk/ccrepo) Feb. 2017
                 A. K. Wilson, D. E. Woon, K. A. Peterson, T. H. Dunning, Jr., J. Chem. Phys. 110, 7667 (1999)

----- AuxJ basis set information -----
Your calculation utilizes the auxiliary basis: def2/J
   F. Weigend, Phys. Chem. Chem. Phys. 8, 1057 (2006).

================================================================================
                                        WARNINGS
                       Please study these warnings very carefully!
================================================================================

INFO   : Checking CIS options ...

INFO   : the flag for use of the SHARK integral package has been found!

================================================================================
                                       INPUT FILE
================================================================================
NAME = acrolien.875.com
|  1> ! B3LYP cc-pVDZ
|  2> !TightSCF
|  3> %scf
|  4>  ConvForced true
|  5>  convergence tight
|  6>  MaxIter 500
|  7> end
|  8>  
|  9> %tddft 
| 10>  nroots 1
| 11> end
| 12> 
| 13> # 	16928
| 14> * xyz 0 1
| 15> 		C   -1.186161  -0.391392   0.023449
| 16> 		O   -1.386811  -1.463400   0.564970
| 17> 		C    0.050085   0.378216   0.068981
| 18> 		C    1.248735   0.048504  -0.048783
| 19> 		H   -2.169730   0.116444  -0.529797
| 20> 		H   -0.143171   1.522863   0.067673
| 21> 		H    1.473518  -0.946736  -0.120556
| 22> 		H    2.059014   0.846441  -0.029045
| 23> *
| 24> 
| 25>                          ****END OF INPUT****
================================================================================

                       ****************************
                       * Single Point Calculation *
                       ****************************

---------------------------------
CARTESIAN COORDINATES (ANGSTROEM)
---------------------------------
  C     -1.186161   -0.391392    0.023449
  O     -1.386811   -1.463400    0.564970
  C      0.050085    0.378216    0.068981
  C      1.248735    0.048504   -0.048783
  H     -2.169730    0.116444   -0.529797
  H     -0.143171    1.522863    0.067673
  H      1.473518   -0.946736   -0.120556
  H      2.059014    0.846441   -0.029045

----------------------------
CARTESIAN COORDINATES (A.U.)
----------------------------
  NO LB      ZA    FRAG     MASS         X           Y           Z
   0 C     6.0000    0    12.011   -2.241519   -0.739624    0.044312
   1 O     8.0000    0    15.999   -2.620693   -2.765425    1.067639
   2 C     6.0000    0    12.011    0.094647    0.714725    0.130355
   3 C     6.0000    0    12.011    2.359767    0.091659   -0.092187
   4 H     1.0000    0     1.008   -4.100195    0.220047   -1.001171
   5 H     1.0000    0     1.008   -0.270554    2.877794    0.127883
   6 H     1.0000    0     1.008    2.784545   -1.789072   -0.227818
   7 H     1.0000    0     1.008    3.890973    1.599542   -0.054887

--------------------------------
INTERNAL COORDINATES (ANGSTROEM)
--------------------------------
 C      0   0   0     0.000000000000     0.00000000     0.00000000
 O      1   0   0     1.217664390547     0.00000000     0.00000000
 C      1   2   0     1.456939878377   126.22601950     0.00000000
 C      3   1   2     1.248735434406   132.22688057    44.02522125
 H      1   2   3     1.237492027115   115.41282063   185.55212385
 H      3   1   2     1.160847253952   112.30694230   214.25734614
 H      4   3   1     1.022830102323   118.32571054   354.28712137
 H      4   3   1     1.137385204077   119.79899365   176.88778003

---------------------------
INTERNAL COORDINATES (A.U.)
---------------------------
 C      0   0   0     0.000000000000     0.00000000     0.00000000
 O      1   0   0     2.301052221161     0.00000000     0.00000000
 C      1   2   0     2.753217363720   126.22601950     0.00000000
 C      3   1   2     2.359767984750   132.22688057    44.02522125
 H      1   2   3     2.338521024158   115.41282063   185.55212385
 H      3   1   2     2.193683393285   112.30694230   214.25734614
 H      4   3   1     1.932868774921   118.32571054   354.28712137
 H      4   3   1     2.149346544480   119.79899365   176.88778003

---------------------
BASIS SET INFORMATION
---------------------
There are 3 groups of distinct atoms

 Group   1 Type C   : 17s4p1d contracted to 3s2p1d pattern {881/31/1}
 Group   2 Type O   : 17s4p1d contracted to 3s2p1d pattern {881/31/1}
 Group   3 Type H   : 4s1p contracted to 2s1p pattern {31/1}

Atom   0C    basis set group =>   1
Atom   1O    basis set group =>   2
Atom   2C    basis set group =>   1
Atom   3C    basis set group =>   1
Atom   4H    basis set group =>   3
Atom   5H    basis set group =>   3
Atom   6H    basis set group =>   3
Atom   7H    basis set group =>   3
---------------------------------
AUXILIARY/J BASIS SET INFORMATION
---------------------------------
There are 3 groups of distinct atoms

 Group   1 Type C   : 12s5p4d2f1g contracted to 6s4p3d1f1g pattern {711111/2111/211/2/1}
 Group   2 Type O   : 12s5p4d2f1g contracted to 6s4p3d1f1g pattern {711111/2111/211/2/1}
 Group   3 Type H   : 5s2p1d contracted to 3s1p1d pattern {311/2/1}

Atom   0C    basis set group =>   1
Atom   1O    basis set group =>   2
Atom   2C    basis set group =>   1
Atom   3C    basis set group =>   1
Atom   4H    basis set group =>   3
Atom   5H    basis set group =>   3
Atom   6H    basis set group =>   3
Atom   7H    basis set group =>   3
------------------------------------------------------------------------------
                           ORCA GTO INTEGRAL CALCULATION
                           -- RI-GTO INTEGRALS CHOSEN --
------------------------------------------------------------------------------
------------------------------------------------------------------------------
                   ___                                                        
                  /   \      - P O W E R E D   B Y -                         
                 /     \                                                     
                 |  |  |   _    _      __       _____    __    __             
                 |  |  |  | |  | |    /  \     |  _  \  |  |  /  |          
                  \  \/   | |  | |   /    \    | | | |  |  | /  /          
                 / \  \   | |__| |  /  /\  \   | |_| |  |  |/  /          
                |  |  |   |  __  | /  /__\  \  |    /   |      \           
                |  |  |   | |  | | |   __   |  |    \   |  |\   \          
                \     /   | |  | | |  |  |  |  | |\  \  |  | \   \       
                 \___/    |_|  |_| |__|  |__|  |_| \__\ |__|  \__/        
                                                                              
                      - O R C A' S   B I G   F R I E N D -                    
                                      &                                       
                       - I N T E G R A L  F E E D E R -                       
                                                                              
 v1 FN, 2020, v2 2021                                                         
------------------------------------------------------------------------------


Reading SHARK input file acrolien.875.SHARKINP.tmp ... ok
----------------------
SHARK INTEGRAL PACKAGE
----------------------

Number of atoms                             ...      8
Number of basis functions                   ...    100
Number of shells                            ...     60
Maximum angular momentum                    ...      2
Integral batch strategy                     ... SHARK/LIBINT Hybrid
RI-J (if used) integral strategy            ... SPLIT-RIJ (Revised 2003 algorithm where possible)
Printlevel                                  ...      1
Contraction scheme used                     ... PARTIAL GENERAL contraction
Coulomb Range Separation                    ... NOT USED
Exchange Range Separation                   ... NOT USED
Finite Nucleus Model                        ... NOT USED
Auxiliary Coulomb fitting basis             ... AVAILABLE
   # of basis functions in Aux-J            ...    240
   # of shells in Aux-J                     ...     80
   Maximum angular momentum in Aux-J        ...      4
Auxiliary J/K fitting basis                 ... NOT available
Auxiliary Correlation fitting basis         ... NOT available
Auxiliary 'external' fitting basis          ... NOT available
Integral threshold                          ...     2.500000e-11
Primitive cut-off                           ...     2.500000e-12
Primitive pair pre-selection threshold      ...     2.500000e-12

Calculating pre-screening integrals         ... done (  0.0 sec) Dimension = 60
Calculating pre-screening integrals (ORCA)  ... done (  0.4 sec) Dimension = 36
Organizing shell pair data                  ... done (  0.4 sec)
Shell pair information
Total number of shell pairs                 ...      1830
Shell pairs after pre-screening             ...      1529
Total number of primitive shell pairs       ...      2950
Primitive shell pairs kept                  ...      2290
          la=0 lb=0:    723 shell pairs
          la=1 lb=0:    500 shell pairs
          la=1 lb=1:     78 shell pairs
          la=2 lb=0:    170 shell pairs
          la=2 lb=1:     48 shell pairs
          la=2 lb=2:     10 shell pairs

Calculating one electron integrals          ... done (  0.0 sec)
Calculating RI/J V-Matrix + Cholesky decomp.... done (  0.0 sec)
Calculating Nuclear repulsion               ... done (  0.0 sec) ENN=    104.389209843611 Eh

SHARK setup successfully completed in   2.2 seconds

Maximum memory used throughout the entire GTOINT-calculation: 14.2 MB
-------------------------------------------------------------------------------
                                 ORCA SCF
-------------------------------------------------------------------------------

------------
SCF SETTINGS
------------
Hamiltonian:
 Density Functional     Method          .... DFT(GTOs)
 Exchange Functional    Exchange        .... B88
   X-Alpha parameter    XAlpha          ....  0.666667
   Becke's b parameter  XBeta           ....  0.004200
 Correlation Functional Correlation     .... LYP
 LDA part of GGA corr.  LDAOpt          .... VWN-5
 Gradients option       PostSCFGGA      .... off
 Hybrid DFT is turned on
   Fraction HF Exchange ScalHFX         ....  0.200000
   Scaling of DF-GGA-X  ScalDFX         ....  0.720000
   Scaling of DF-GGA-C  ScalDFC         ....  0.810000
   Scaling of DF-LDA-C  ScalLDAC        ....  1.000000
   Perturbative correction              ....  0.000000
   Density functional embedding theory  .... OFF
   NL short-range parameter             ....  4.800000
 RI-approximation to the Coulomb term is turned on
   Number of AuxJ basis functions       .... 240
   RIJ-COSX (HFX calculated with COS-X)).... on


General Settings:
 Integral files         IntName         .... acrolien.875
 Hartree-Fock type      HFTyp           .... RHF
 Total Charge           Charge          ....    0
 Multiplicity           Mult            ....    1
 Number of Electrons    NEL             ....   30
 Basis Dimension        Dim             ....   76
 Nuclear Repulsion      ENuc            ....    104.3892098436 Eh

Convergence Acceleration:
 DIIS                   CNVDIIS         .... on
   Start iteration      DIISMaxIt       ....    12
   Startup error        DIISStart       ....  0.200000
   # of expansion vecs  DIISMaxEq       ....     5
   Bias factor          DIISBfac        ....   1.050
   Max. coefficient     DIISMaxC        ....  10.000
 Trust-Rad. Augm. Hess. CNVTRAH         .... auto
   Auto Start mean grad. ratio tolernc. ....  1.125000
   Auto Start start iteration           ....    20
   Auto Start num. interpolation iter.  ....    10
   Max. Number of Micro iterations      ....    16
   Max. Number of Macro iterations      .... Maxiter - #DIIS iter
   Number of Davidson start vectors     ....     2
   Converg. threshold I  (grad. norm)   ....   1.000e-05
   Converg. threshold II (energy diff.) ....   1.000e-08
   Grad. Scal. Fac. for Micro threshold ....   0.100
   Minimum threshold for Micro iter.    ....   0.010
   NR start threshold (gradient norm)   ....   0.001
   Initial trust radius                 ....   0.400
   Minimum AH scaling param. (alpha)    ....   1.000
   Maximum AH scaling param. (alpha)    .... 1000.000
   Orbital update algorithm             .... Taylor
   White noise on init. David. guess    .... on
   Maximum white noise                  ....   0.010
   Quad. conv. algorithm                .... NR
 SOSCF                  CNVSOSCF        .... on
   Start iteration      SOSCFMaxIt      ....   150
   Startup grad/error   SOSCFStart      ....  0.003300
 Level Shifting         CNVShift        .... on
   Level shift para.    LevelShift      ....    0.2500
   Turn off err/grad.   ShiftErr        ....    0.0010
 Zerner damping         CNVZerner       .... off
 Static damping         CNVDamp         .... on
   Fraction old density DampFac         ....    0.7000
   Max. Damping (<1)    DampMax         ....    0.9800
   Min. Damping (>=0)   DampMin         ....    0.0000
   Turn off err/grad.   DampErr         ....    0.1000
 Fernandez-Rico         CNVRico         .... off

SCF Procedure:
 Maximum # iterations   MaxIter         ....   500
 SCF integral mode      SCFMode         .... Direct
   Integral package                     .... SHARK and LIBINT hybrid scheme
 Reset frequency        DirectResetFreq ....    20
 Integral Threshold     Thresh          ....  2.500e-11 Eh
 Primitive CutOff       TCut            ....  2.500e-12 Eh

Convergence Tolerance:
 Convergence Check Mode ConvCheckMode   .... Total+1el-Energy
 Convergence forced     ConvForced      .... 1
 Energy Change          TolE            ....  1.000e-08 Eh
 1-El. energy change                    ....  1.000e-05 Eh
 Orbital Gradient       TolG            ....  1.000e-05
 Orbital Rotation angle TolX            ....  1.000e-05
 DIIS Error             TolErr          ....  5.000e-07


Diagonalization of the overlap matrix:
Smallest eigenvalue                        ... 2.419e-03
Time for diagonalization                   ...    0.002 sec
Threshold for overlap eigenvalues          ... 1.000e-08
Number of eigenvalues below threshold      ... 0
Time for construction of square roots      ...    0.174 sec
Total time needed                          ...    0.175 sec

Time for model grid setup =    0.384 sec

------------------------------
INITIAL GUESS: MODEL POTENTIAL
------------------------------
Loading Hartree-Fock densities                     ... done
Calculating cut-offs                               ... done
Initializing the effective Hamiltonian             ... done
Setting up the integral package (SHARK)            ... done
Starting the Coulomb interaction                   ... done (   0.6 sec)
Reading the grid                                   ... done
Mapping shells                                     ... done
Starting the XC term evaluation                    ... done (   0.1 sec)
  promolecular density results
     # of electrons  =     29.997771742
     EX              =    -24.752882159
     EC              =     -0.996249477
     EX+EC           =    -25.749131636
Transforming the Hamiltonian                       ... done (   0.0 sec)
Diagonalizing the Hamiltonian                      ... done (   0.0 sec)
Back transforming the eigenvectors                 ... done (   0.0 sec)
Now organizing SCF variables                       ... done
                      ------------------
                      INITIAL GUESS DONE (   1.4 sec)
                      ------------------
-------------------
DFT GRID GENERATION
-------------------

General Integration Accuracy     IntAcc      ... 4.388
Radial Grid Type                 RadialGrid  ... OptM3 with GC (2021)
Angular Grid (max. ang.)         AngularGrid ... 4 (Lebedev-302)
Angular grid pruning method      GridPruning ... 4 (adaptive)
Weight generation scheme         WeightScheme... Becke
Basis function cutoff            BFCut       ... 1.0000e-11
Integration weight cutoff        WCut        ... 1.0000e-14
Angular grids for H and He will be reduced by one unit
Partially contracted basis set               ... off
Rotationally invariant grid construction     ... off

Total number of grid points                  ...    37386
Total number of batches                      ...      588
Average number of points per batch           ...       63
Average number of grid points per atom       ...     4673
Time for grid setup =    0.284 sec

--------------------
COSX GRID GENERATION
--------------------

GRIDX 1
-------
General Integration Accuracy     IntAcc      ... 3.816
Radial Grid Type                 RadialGrid  ... OptM3 with GC (2021)
Angular Grid (max. ang.)         AngularGrid ... 1 (Lebedev-50)
Angular grid pruning method      GridPruning ... 4 (adaptive)
Weight generation scheme         WeightScheme... Becke
Basis function cutoff            BFCut       ... 1.0000e-11
Integration weight cutoff        WCut        ... 1.0000e-14
Angular grids for H and He will be reduced by one unit
Partially contracted basis set               ... on
Rotationally invariant grid construction     ... off

Total number of grid points                  ...     4801
Total number of batches                      ...       79
Average number of points per batch           ...       60
Average number of grid points per atom       ...      600
UseSFitting                                  ... on

GRIDX 2
-------
General Integration Accuracy     IntAcc      ... 4.020
Radial Grid Type                 RadialGrid  ... OptM3 with GC (2021)
Angular Grid (max. ang.)         AngularGrid ... 2 (Lebedev-110)
Angular grid pruning method      GridPruning ... 4 (adaptive)
Weight generation scheme         WeightScheme... Becke
Basis function cutoff            BFCut       ... 1.0000e-11
Integration weight cutoff        WCut        ... 1.0000e-14
Angular grids for H and He will be reduced by one unit
Partially contracted basis set               ... on
Rotationally invariant grid construction     ... off

Total number of grid points                  ...    10566
Total number of batches                      ...      169
Average number of points per batch           ...       62
Average number of grid points per atom       ...     1321
UseSFitting                                  ... on

GRIDX 3
-------
General Integration Accuracy     IntAcc      ... 4.338
Radial Grid Type                 RadialGrid  ... OptM3 with GC (2021)
Angular Grid (max. ang.)         AngularGrid ... 3 (Lebedev-194)
Angular grid pruning method      GridPruning ... 4 (adaptive)
Weight generation scheme         WeightScheme... Becke
Basis function cutoff            BFCut       ... 1.0000e-11
Integration weight cutoff        WCut        ... 1.0000e-14
Angular grids for H and He will be reduced by one unit
Partially contracted basis set               ... on
Rotationally invariant grid construction     ... off

Total number of grid points                  ...    23307
Total number of batches                      ...      368
Average number of points per batch           ...       63
Average number of grid points per atom       ...     2913
UseSFitting                                  ... on

Time for X-Grid setup             =    2.359 sec

 re-compute Schwartz prescreening matrix in partically contracted basis (1) ...done (   1.160 sec)
--------------
SCF ITERATIONS
--------------
ITER       Energy         Delta-E        Max-DP      RMS-DP      [F,P]     Damp
               ***  Starting incremental Fock matrix formation  ***
  0   -191.6232590481   0.000000000000 0.09152630  0.00430575  0.2471183 0.7000
  1   -191.6988689712  -0.075609923040 0.05018146  0.00268758  0.0889215 0.7000
                               ***Turning on DIIS***
  2   -191.7240037394  -0.025134768267 0.06197274  0.00357244  0.0367584 0.0000
  3   -191.7681144738  -0.044110734342 0.03343562  0.00200172  0.0471323 0.0000
  4   -191.7764902994  -0.008375825607 0.01029517  0.00059553  0.0180806 0.0000
                      *** Initiating the SOSCF procedure ***
                           *** Shutting down DIIS ***
                      *** Re-Reading the Fockian *** 
                      *** Removing any level shift *** 
ITER      Energy       Delta-E        Grad      Rot      Max-DP    RMS-DP
  5   -191.77763086  -0.0011405629  0.000818  0.000818  0.004152  0.000181
               *** Restarting incremental Fock matrix formation ***
  6   -191.77770772  -0.0000768610  0.000368  0.001487  0.002409  0.000122
  7   -191.77770794  -0.0000002183  0.000515  0.000623  0.001160  0.000056
  8   -191.77771166  -0.0000037201  0.000237  0.000374  0.000748  0.000041
  9   -191.77771155   0.0000001095  0.000186  0.000150  0.000288  0.000016
 10   -191.77771225  -0.0000006940  0.000022  0.000064  0.000116  0.000005
 11   -191.77771224   0.0000000033  0.000028  0.000041  0.000056  0.000002
                  ***Gradient check signals convergence***
              ***Rediagonalizing the Fockian in SOSCF/NRSCF***

               *****************************************************
               *                     SUCCESS                       *
               *           SCF CONVERGED AFTER  12 CYCLES          *
               *****************************************************

Old exchange energy                            =     -5.028750525 Eh
New exchange energy                            =     -5.028750592 Eh
Exchange energy change after final integration =     -0.000000067 Eh
Total energy after final integration           =   -191.777712320 Eh
Final COS-X integration done in                =     1.473 sec

----------------
TOTAL SCF ENERGY
----------------

Total Energy       :         -191.77771232 Eh           -5218.53686 eV

Components:
Nuclear Repulsion  :          104.38920984 Eh            2840.57481 eV
Electronic Energy  :         -296.16692216 Eh           -8059.11167 eV
One Electron Energy:         -465.88838478 Eh          -12677.46746 eV
Two Electron Energy:          169.72146261 Eh            4618.35579 eV
Max COSX asymmetry :            0.00000109 Eh               0.00003 eV

Virial components:
Potential Energy   :         -382.57344597 Eh          -10410.35272 eV
Kinetic Energy     :          190.79573365 Eh            5191.81586 eV
Virial Ratio       :            2.00514675


DFT components:
N(Alpha)           :       14.999995605076 electrons
N(Beta)            :       14.999995605076 electrons
N(Total)           :       29.999991210152 electrons
E(X)               :      -19.991793684308 Eh       
E(C)               :       -1.183765799184 Eh       
E(XC)              :      -21.175559483492 Eh       
DFET-embed. en.    :        0.000000000000 Eh       

---------------
SCF CONVERGENCE
---------------

  Last Energy change         ...   -1.0176e-08  Tolerance :   1.0000e-08
  Last MAX-Density change    ...    1.7764e-15  Tolerance :   1.0000e-07
  Last RMS-Density change    ...    5.9851e-17  Tolerance :   5.0000e-09
  Last Orbital Gradient      ...    2.4080e-06  Tolerance :   1.0000e-05
  Last Orbital Rotation      ...    8.5297e-06  Tolerance :   1.0000e-05

             **** THE GBW FILE WAS UPDATED (acrolien.875.gbw) ****
             **** DENSITY acrolien.875.scfp WAS UPDATED ****
             **** ENERGY FILE WAS UPDATED (acrolien.875.en.tmp) ****
             **** THE GBW FILE WAS UPDATED (acrolien.875.gbw) ****
             **** DENSITY acrolien.875.scfp WAS UPDATED ****
----------------
ORBITAL ENERGIES
----------------

  NO   OCC          E(Eh)            E(eV) 
   0   2.0000     -19.143971      -520.9339 
   1   2.0000     -10.287881      -279.9475 
   2   2.0000     -10.204683      -277.6835 
   3   2.0000     -10.201968      -277.6097 
   4   2.0000      -1.046679       -28.4816 
   5   2.0000      -0.819451       -22.2984 
   6   2.0000      -0.660344       -17.9689 
   7   2.0000      -0.537454       -14.6249 
   8   2.0000      -0.506045       -13.7702 
   9   2.0000      -0.454392       -12.3646 
  10   2.0000      -0.437707       -11.9106 
  11   2.0000      -0.396415       -10.7870 
  12   2.0000      -0.365228        -9.9384 
  13   2.0000      -0.306818        -8.3489 
  14   2.0000      -0.255748        -6.9593 
  15   0.0000      -0.058740        -1.5984 
  16   0.0000       0.035676         0.9708 
  17   0.0000       0.061010         1.6602 
  18   0.0000       0.088010         2.3949 
  19   0.0000       0.111210         3.0262 
  20   0.0000       0.146054         3.9743 
  21   0.0000       0.265030         7.2118 
  22   0.0000       0.286292         7.7904 
  23   0.0000       0.323014         8.7896 
  24   0.0000       0.405308        11.0290 
  25   0.0000       0.440805        11.9949 
  26   0.0000       0.449715        12.2374 
  27   0.0000       0.494254        13.4493 
  28   0.0000       0.509427        13.8622 
  29   0.0000       0.546796        14.8791 
  30   0.0000       0.578057        15.7297 
  31   0.0000       0.584115        15.8946 
  32   0.0000       0.647180        17.6107 
  33   0.0000       0.656209        17.8564 
  34   0.0000       0.711416        19.3586 
  35   0.0000       0.759778        20.6746 
  36   0.0000       0.771909        21.0047 
  37   0.0000       0.830507        22.5992 
  38   0.0000       0.922175        25.0937 
  39   0.0000       0.947843        25.7921 
  40   0.0000       0.965390        26.2696 
  41   0.0000       1.027709        27.9654 
  42   0.0000       1.061450        28.8835 
  43   0.0000       1.104577        30.0571 
  44   0.0000       1.109279        30.1850 
  45   0.0000       1.127613        30.6839 
  46   0.0000       1.219688        33.1894 
  47   0.0000       1.300112        35.3778 
  48   0.0000       1.405186        38.2371 
  49   0.0000       1.448488        39.4154 
  50   0.0000       1.484830        40.4043 
  51   0.0000       1.521607        41.4050 
  52   0.0000       1.574677        42.8491 
  53   0.0000       1.605075        43.6763 
  54   0.0000       1.632165        44.4135 
  55   0.0000       1.688081        45.9350 
  56   0.0000       1.703782        46.3623 
  57   0.0000       1.732509        47.1440 
  58   0.0000       1.772360        48.2284 
  59   0.0000       1.821765        49.5727 
  60   0.0000       1.894583        51.5542 
  61   0.0000       1.989853        54.1467 
  62   0.0000       2.057376        55.9841 
  63   0.0000       2.103539        57.2402 
  64   0.0000       2.178680        59.2849 
  65   0.0000       2.242148        61.0119 
  66   0.0000       2.263036        61.5803 
  67   0.0000       2.370178        64.4958 
  68   0.0000       2.521218        68.6058 
  69   0.0000       2.669220        72.6332 
  70   0.0000       2.722349        74.0789 
  71   0.0000       2.856550        77.7307 
  72   0.0000       2.971213        80.8508 
  73   0.0000       3.077625        83.7464 
  74   0.0000       3.339777        90.8800 
  75   0.0000       3.445269        93.7505 

                    ********************************
                    * MULLIKEN POPULATION ANALYSIS *
                    ********************************

-----------------------
MULLIKEN ATOMIC CHARGES
-----------------------
   0 C :    0.125448
   1 O :   -0.183349
   2 C :   -0.099949
   3 C :    0.121599
   4 H :   -0.007824
   5 H :    0.008720
   6 H :   -0.005708
   7 H :    0.041063
Sum of atomic charges:    0.0000000

--------------------------------
MULLIKEN REDUCED ORBITAL CHARGES
--------------------------------
  0 C s       :     3.160377  s :     3.160377
      pz      :     0.802709  p :     2.572497
      px      :     0.916770
      py      :     0.853018
      dz2     :     0.015886  d :     0.141678
      dxz     :     0.018353
      dyz     :     0.025115
      dx2y2   :     0.030715
      dxy     :     0.051609
  1 O s       :     3.754512  s :     3.754512
      pz      :     1.338222  p :     4.410618
      px      :     1.734888
      py      :     1.337508
      dz2     :     0.002895  d :     0.018220
      dxz     :     0.001150
      dyz     :     0.005696
      dx2y2   :     0.004949
      dxy     :     0.003530
  2 C s       :     3.135391  s :     3.135391
      pz      :     0.987619  p :     2.898864
      px      :     0.972020
      py      :     0.939225
      dz2     :     0.003626  d :     0.065694
      dxz     :     0.012081
      dyz     :     0.002469
      dx2y2   :     0.023168
      dxy     :     0.024350
  3 C s       :     2.995804  s :     2.995804
      pz      :     0.925922  p :     2.831733
      px      :     1.013066
      py      :     0.892745
      dz2     :     0.000642  d :     0.050865
      dxz     :     0.010992
      dyz     :     0.000884
      dx2y2   :     0.017460
      dxy     :     0.020887
  4 H s       :     0.987030  s :     0.987030
      pz      :     0.004799  p :     0.020794
      px      :     0.012010
      py      :     0.003985
  5 H s       :     0.965113  s :     0.965113
      pz      :     0.004852  p :     0.026167
      px      :     0.004171
      py      :     0.017143
  6 H s       :     0.972084  s :     0.972084
      pz      :     0.006541  p :     0.033624
      px      :     0.007370
      py      :     0.019713
  7 H s       :     0.930714  s :     0.930714
      pz      :     0.004797  p :     0.028223
      px      :     0.012033
      py      :     0.011393


                     *******************************
                     * LOEWDIN POPULATION ANALYSIS *
                     *******************************

----------------------
LOEWDIN ATOMIC CHARGES
----------------------
   0 C :   -0.036645
   1 O :   -0.004942
   2 C :   -0.086838
   3 C :    0.007676
   4 H :    0.003140
   5 H :    0.048013
   6 H :    0.016690
   7 H :    0.052908

-------------------------------
LOEWDIN REDUCED ORBITAL CHARGES
-------------------------------
  0 C s       :     2.897066  s :     2.897066
      pz      :     0.827324  p :     2.767278
      px      :     0.993788
      py      :     0.946165
      dz2     :     0.034827  d :     0.372302
      dxz     :     0.046424
      dyz     :     0.067717
      dx2y2   :     0.076067
      dxy     :     0.147268
  1 O s       :     3.504551  s :     3.504551
      pz      :     1.345228  p :     4.469091
      px      :     1.701136
      py      :     1.422727
      dz2     :     0.003771  d :     0.031300
      dxz     :     0.001750
      dyz     :     0.010524
      dx2y2   :     0.009136
      dxy     :     0.006120
  2 C s       :     2.826638  s :     2.826638
      pz      :     0.944952  p :     3.042462
      px      :     1.104462
      py      :     0.993048
      dz2     :     0.016472  d :     0.217739
      dxz     :     0.031435
      dyz     :     0.005180
      dx2y2   :     0.085128
      dxy     :     0.079524
  3 C s       :     2.811210  s :     2.811210
      pz      :     0.891617  p :     3.007747
      px      :     1.086069
      py      :     1.030062
      dz2     :     0.012580  d :     0.173367
      dxz     :     0.024117
      dyz     :     0.002679
      dx2y2   :     0.061461
      dxy     :     0.072530
  4 H s       :     0.941962  s :     0.941962
      pz      :     0.013231  p :     0.054898
      px      :     0.030258
      py      :     0.011409
  5 H s       :     0.887338  s :     0.887338
      pz      :     0.013342  p :     0.064649
      px      :     0.010722
      py      :     0.040586
  6 H s       :     0.885313  s :     0.885313
      pz      :     0.021068  p :     0.097997
      px      :     0.021245
      py      :     0.055684
  7 H s       :     0.877823  s :     0.877823
      pz      :     0.013550  p :     0.069270
      px      :     0.026742
      py      :     0.028977


                      *****************************
                      * MAYER POPULATION ANALYSIS *
                      *****************************

  NA   - Mulliken gross atomic population
  ZA   - Total nuclear charge
  QA   - Mulliken gross atomic charge
  VA   - Mayer's total valence
  BVA  - Mayer's bonded valence
  FA   - Mayer's free valence

  ATOM       NA         ZA         QA         VA         BVA        FA
  0 C      5.8746     6.0000     0.1254     4.1339     4.1339     0.0000
  1 O      8.1833     8.0000    -0.1833     2.3319     2.3319    -0.0000
  2 C      6.0999     6.0000    -0.0999     4.0671     4.0671     0.0000
  3 C      5.8784     6.0000     0.1216     3.9996     3.9996     0.0000
  4 H      1.0078     1.0000    -0.0078     0.9642     0.9642     0.0000
  5 H      0.9913     1.0000     0.0087     0.9750     0.9750     0.0000
  6 H      1.0057     1.0000    -0.0057     0.9845     0.9845     0.0000
  7 H      0.9589     1.0000     0.0411     0.9643     0.9643     0.0000

  Mayer bond orders larger than 0.100000
B(  0-C ,  1-O ) :   2.2003 B(  0-C ,  2-C ) :   1.0193 B(  0-C ,  4-H ) :   0.8902 
B(  2-C ,  3-C ) :   2.0517 B(  2-C ,  5-H ) :   0.9111 B(  3-C ,  6-H ) :   0.9234 
B(  3-C ,  7-H ) :   0.9200 

-------
TIMINGS
-------

Total SCF time: 0 days 0 hours 2 min 23 sec 

Total time                  ....     143.783 sec
Sum of individual times     ....     104.006 sec  ( 72.3%)

Fock matrix formation       ....      97.934 sec  ( 68.1%)
  Split-RI-J                ....       0.902 sec  (  0.9% of F)
  Chain of spheres X        ....       8.243 sec  (  8.4% of F)
  XC integration            ....      30.803 sec  ( 31.5% of F)
    Basis function eval.    ....       1.573 sec  (  5.1% of XC)
    Density eval.           ....       0.593 sec  (  1.9% of XC)
    XC-Functional eval.     ....       0.505 sec  (  1.6% of XC)
    XC-Potential eval.      ....       0.586 sec  (  1.9% of XC)
Diagonalization             ....       0.006 sec  (  0.0%)
Density matrix formation    ....       0.001 sec  (  0.0%)
Population analysis         ....       0.043 sec  (  0.0%)
Initial guess               ....       0.981 sec  (  0.7%)
Orbital Transformation      ....       0.000 sec  (  0.0%)
Orbital Orthonormalization  ....       0.000 sec  (  0.0%)
DIIS solution               ....       0.357 sec  (  0.2%)
SOSCF solution              ....       1.656 sec  (  1.2%)
Grid generation             ....       3.027 sec  (  2.1%)

Maximum memory used throughout the entire SCF-calculation: 51.7 MB
------------------------------------------------------------------------------
                        ORCA TD-DFT/TDA CALCULATION
------------------------------------------------------------------------------

Input orbitals are from        ... acrolien.875.gbw
CI-vector output               ... acrolien.875.cis
Tamm-Dancoff approximation     ... operative
CIS-Integral strategy          ... AO-integrals
Integral handling              ... AO integral Direct
Max. core memory used          ... 512 MB
Reference state                ... RHF
Generation of triplets         ... off
Follow IRoot                   ... off
Number of operators            ... 1
Orbital ranges used for CIS calculation:
 Operator 0:  Orbitals   4... 14  to  15... 75
XAS localization array:
 Operator 0:  Orbitals  -1... -1

-------------------
XC-INTEGRATION GRID
-------------------

General Integration Accuracy     IntAcc      ... 3.467
Radial Grid Type                 RadialGrid  ... OptM3 with GC (2021)
Angular Grid (max. ang.)         AngularGrid ... 1 (Lebedev-50)
Angular grid pruning method      GridPruning ... 4 (adaptive)
Weight generation scheme         WeightScheme... Becke
Basis function cutoff            BFCut       ... 1.0000e-11
Integration weight cutoff        WCut        ... 1.0000e-14
Angular grids for H and He will be reduced by one unit
Partially contracted basis set               ... off
Rotationally invariant grid construction     ... off

Total number of grid points                  ...     5496
Total number of batches                      ...       91
Average number of points per batch           ...       60
Average number of grid points per atom       ...      687

---------------------
COSX-INTEGRATION GRID
---------------------

General Integration Accuracy     IntAcc      ... 3.067
Radial Grid Type                 RadialGrid  ... OptM3 with GC (2021)
Angular Grid (max. ang.)         AngularGrid ... 1 (Lebedev-50)
Angular grid pruning method      GridPruning ... 4 (adaptive)
Weight generation scheme         WeightScheme... Becke
Basis function cutoff            BFCut       ... 1.0000e-11
Integration weight cutoff        WCut        ... 1.0000e-14
Angular grids for H and He will be reduced by one unit
Partially contracted basis set               ... on
Rotationally invariant grid construction     ... off

Total number of grid points                  ...     2510
Total number of batches                      ...       45
Average number of points per batch           ...       55
Average number of grid points per atom       ...      314

---------------
TD-DFT XC SETUP
---------------

DFT calculation                         ... on
Name of the grid file                   ... acrolien.875.grid_cis.tmp
Exchange functional (TD-DFT)            ... B88
   X-Alpha parameter    XAlpha (TD-DFT) ...  0.666667
   Becke's b parameter  XBeta (TD-DFT)  ...  0.004200
Correlation functional (TD-DFT)         ... LYP
 LDA part of GGA corr.  LDAOpt (TD-DFT) ... VWN-5
Hybrid DFT                              ... on
   Exchange mixing (TD-DFT)             ...  0.200
   GGA exch. scaling (TD-DFT)           ...  0.720
   GGA corr. scaling (TD-DFT)           ...  0.810

Building densities             ... done
Calculating rho(r) on the grid ... done
Building xc-kernel on the grid ... done
                    *** TD-DFT CALCULATION INITIALIZED ***

------------------------
DAVIDSON-DIAGONALIZATION
------------------------

Dimension of the eigenvalue problem            ...    671
Number of roots to be determined               ...      1
Maximum size of the expansion space            ...     10
Maximum number of iterations                   ...    100
Convergence tolerance for the residual         ...    2.500e-07
Convergence tolerance for the energies         ...    2.500e-07
Orthogonality tolerance                        ...    1.000e-14
Level Shift                                    ...    0.000e+00
Constructing the preconditioner                ... o.k.
Building the initial guess                     ... o.k.
Number of trial vectors determined             ...     10


                       ****Iteration    0****

   Memory handling for direct AO based CIS:
   Memory per vector needed      ...     1 MB
   Memory needed                 ...     0 MB
   Memory available              ...   512 MB
   Number of vectors per batch   ...   512
   Number of batches             ...     1
   Time for densities:            0.000
   Time for RI-J (Direct):        0.081
   Time for K (COSX):             0.235
   Time for XC-Integration:       0.079
   Time for Sigma-Completion:     0.000
   Size of expansion space: 3
   Lowest Energy          :     0.137872370264
   Maximum Energy change  :     0.137872370264 (vector 0)
   Maximum residual norm  :     0.001415272918

                       ****Iteration    1****
   Time for densities:            0.000
   Time for RI-J (Direct):        0.053
   Time for K (COSX):             1.508
   Time for XC-Integration:       0.042
   Time for Sigma-Completion:     0.000
   Size of expansion space: 4
   Lowest Energy          :     0.135313850659
   Maximum Energy change  :     0.002558519604 (vector 0)
   Maximum residual norm  :     0.000162255463

                       ****Iteration    2****
   Time for densities:            0.000
   Time for RI-J (Direct):        0.054
   Time for K (COSX):             0.193
   Time for XC-Integration:       0.042
   Time for Sigma-Completion:     0.000
   Size of expansion space: 5
   Lowest Energy          :     0.135142867964
   Maximum Energy change  :     0.000170982696 (vector 0)
   Maximum residual norm  :     0.000025352845

                       ****Iteration    3****
   Time for densities:            0.000
   Time for RI-J (Direct):        0.054
   Time for K (COSX):             0.194
   Time for XC-Integration:       0.042
   Time for Sigma-Completion:     0.000
   Size of expansion space: 6
   Lowest Energy          :     0.135119796996
   Maximum Energy change  :     0.000023070968 (vector 0)
   Maximum residual norm  :     0.000001881733

                       ****Iteration    4****
   Time for densities:            0.000
   Time for RI-J (Direct):        0.055
   Time for K (COSX):             2.103
   Time for XC-Integration:       0.045
   Time for Sigma-Completion:     0.000
   Size of expansion space: 7
   Lowest Energy          :     0.135117978774
   Maximum Energy change  :     0.000001818222 (vector 0)
   Maximum residual norm  :     0.000000097500

      *** CONVERGENCE OF RESIDUAL NORM REACHED ***

Storing the converged CI vectors               ... acrolien.875.cis1

                 *** DAVIDSON DONE ***

Total time for solving the CIS problem:    15.543sec

------------------------------------
TD-DFT/TDA EXCITED STATES (SINGLETS)
------------------------------------

the weight of the individual excitations are printed if larger than 1.0e-02

STATE  1:  E=   0.135118 au      3.677 eV    29655.0 cm**-1 <S**2> =   0.000000
    14a ->  15a  :     0.979660 (c=  0.98977800)
    14a ->  17a  :     0.010071 (c=  0.10035552)


-----------------------------
TD-DFT/TDA-EXCITATION SPECTRA
-----------------------------

Center of mass = ( -0.6608, -0.7226,  0.3016)
Calculating the Dipole integrals                  ... done
Transforming integrals                            ... done
Calculating the Linear Momentum integrals         ... done
Transforming integrals                            ... done
Calculating angular momentum integrals            ... done
Transforming integrals                            ... done

-----------------------------------------------------------------------------
         ABSORPTION SPECTRUM VIA TRANSITION ELECTRIC DIPOLE MOMENTS
-----------------------------------------------------------------------------
State   Energy    Wavelength  fosc         T2        TX        TY        TZ  
        (cm-1)      (nm)                 (au**2)    (au)      (au)      (au) 
-----------------------------------------------------------------------------
   1   29655.0    337.2   0.000649102   0.00721  -0.07816  -0.00032   0.03311

-----------------------------------------------------------------------------
         ABSORPTION SPECTRUM VIA TRANSITION VELOCITY DIPOLE MOMENTS
-----------------------------------------------------------------------------
State   Energy    Wavelength   fosc        P2         PX        PY        PZ  
        (cm-1)      (nm)                 (au**2)     (au)      (au)      (au) 
-----------------------------------------------------------------------------
   1   29655.0    337.2   0.000941402   0.00019  -0.00805   0.00063  -0.01121

-------------------------------------------------------------------
                             CD SPECTRUM
-------------------------------------------------------------------
State  Energy     Wavelength     R         MX        MY        MZ   
       (cm-1)       (nm)     (1e40*cgs)   (au)      (au)      (au)  
-------------------------------------------------------------------
   1   29655.0    337.2     -7.91170   0.13093   0.37895  -0.19411

-------------------------------------------------------------------
         CD SPECTRUM VIA TRANSITION VELOCITY DIPOLE MOMENTS        
-------------------------------------------------------------------
State  Energy     Wavelength     R         MX        MY        MZ   
       (cm-1)       (nm)     (1e40*cgs)   (au)      (au)      (au)  
-------------------------------------------------------------------
   1   29655.0    337.2      4.74211   0.13093   0.37895  -0.19411

Total run time:       27.294 sec

           *** ORCA-CIS/TD-DFT FINISHED WITHOUT ERROR ***

Maximum memory used throughout the entire CIS-calculation: 48.6 MB

-----------------------
CIS/TD-DFT TOTAL ENERGY
-----------------------

    E(SCF)  =   -191.777712320 Eh
    DE(CIS) =      0.135117979 Eh (Root  1)
    ----------------------------- ---------
    E(tot)  =   -191.642594341 Eh


-------------------------   --------------------
FINAL SINGLE POINT ENERGY      -191.642594341040
-------------------------   --------------------


                            ***************************************
                            *     ORCA property calculations      *
                            ***************************************

                                    ---------------------
                                    Active property flags
                                    ---------------------
   (+) Dipole Moment


------------------------------------------------------------------------------
                       ORCA ELECTRIC PROPERTIES CALCULATION
------------------------------------------------------------------------------

Dipole Moment Calculation                       ... on
Quadrupole Moment Calculation                   ... off
Polarizability Calculation                      ... off
GBWName                                         ... acrolien.875.gbw
Electron density                                ... acrolien.875.scfp
The origin for moment calculation is the CENTER OF MASS  = (-0.660819, -0.722578  0.301559)

-------------
DIPOLE MOMENT
-------------
                                X             Y             Z
Electronic contribution:     -1.89240      -2.07556       0.81489
Nuclear contribution   :      2.44118       2.86281      -1.16676
                        -----------------------------------------
Total Dipole Moment    :      0.54878       0.78725      -0.35187
                        -----------------------------------------
Magnitude (a.u.)       :      1.02212
Magnitude (Debye)      :      2.59803



--------------------
Rotational spectrum 
--------------------
 
Rotational constants in cm-1:     0.943404     0.183400     0.157221 
Rotational constants in MHz : 28282.543773  5498.198590  4713.381506 

 Dipole components along the rotational axes: 
x,y,z [a.u.] :     0.912125    -0.446013    -0.117621 
x,y,z [Debye]:     2.318436    -1.133676    -0.298970 

 

Timings for individual modules:

Sum of individual times         ...      176.323 sec (=   2.939 min)
GTO integral calculation        ...        3.188 sec (=   0.053 min)   1.8 %
SCF iterations                  ...      143.822 sec (=   2.397 min)  81.6 %
CIS module                      ...       29.313 sec (=   0.489 min)  16.6 %
                             ****ORCA TERMINATED NORMALLY****
TOTAL RUN TIME: 0 days 0 hours 3 minutes 8 seconds 795 msec
