
                                 *****************
                                 * O   R   C   A *
                                 *****************

                                            #,                                       
                                            ###                                      
                                            ####                                     
                                            #####                                    
                                            ######                                   
                                           ########,                                 
                                     ,,################,,,,,                         
                               ,,#################################,,                 
                          ,,##########################################,,             
                       ,#########################################, ''#####,          
                    ,#############################################,,   '####,        
                  ,##################################################,,,,####,       
                ,###########''''           ''''###############################       
              ,#####''   ,,,,##########,,,,          '''####'''          '####       
            ,##' ,,,,###########################,,,                        '##       
           ' ,,###''''                  '''############,,,                           
         ,,##''                                '''############,,,,        ,,,,,,###''
      ,#''                                            '''#######################'''  
     '                                                          ''''####''''         
             ,#######,   #######,   ,#######,      ##                                
            ,#'     '#,  ##    ##  ,#'     '#,    #''#        ######   ,####,        
            ##       ##  ##   ,#'  ##            #'  '#       #        #'  '#        
            ##       ##  #######   ##           ,######,      #####,   #    #        
            '#,     ,#'  ##    ##  '#,     ,#' ,#      #,         ##   #,  ,#        
             '#######'   ##     ##  '#######'  #'      '#     #####' # '####'        



                  #######################################################
                  #                        -***-                        #
                  #          Department of theory and spectroscopy      #
                  #    Directorship and core code : Frank Neese         #
                  #        Max Planck Institute fuer Kohlenforschung    #
                  #                Kaiser Wilhelm Platz 1               #
                  #                 D-45470 Muelheim/Ruhr               #
                  #                      Germany                        #
                  #                                                     #
                  #                  All rights reserved                #
                  #                        -***-                        #
                  #######################################################


                         Program Version 5.0.3 -  RELEASE  -


 With contributions from (in alphabetic order):
   Daniel Aravena         : Magnetic Suceptibility
   Michael Atanasov       : Ab Initio Ligand Field Theory (pilot matlab implementation)
   Alexander A. Auer      : GIAO ZORA, VPT2 properties, NMR spectrum
   Ute Becker             : Parallelization
   Giovanni Bistoni       : ED, misc. LED, open-shell LED, HFLD
   Martin Brehm           : Molecular dynamics
   Dmytro Bykov           : SCF Hessian
   Vijay G. Chilkuri      : MRCI spin determinant printing, contributions to CSF-ICE
   Dipayan Datta          : RHF DLPNO-CCSD density
   Achintya Kumar Dutta   : EOM-CC, STEOM-CC
   Dmitry Ganyushin       : Spin-Orbit,Spin-Spin,Magnetic field MRCI
   Miquel Garcia          : C-PCM and meta-GGA Hessian, CC/C-PCM, Gaussian charge scheme
   Yang Guo               : DLPNO-NEVPT2, F12-NEVPT2, CIM, IAO-localization
   Andreas Hansen         : Spin unrestricted coupled pair/coupled cluster methods
   Benjamin Helmich-Paris : MC-RPA, TRAH-SCF, COSX integrals
   Lee Huntington         : MR-EOM, pCC
   Robert Izsak           : Overlap fitted RIJCOSX, COSX-SCS-MP3, EOM
   Marcus Kettner         : VPT2
   Christian Kollmar      : KDIIS, OOCD, Brueckner-CCSD(T), CCSD density, CASPT2, CASPT2-K
   Simone Kossmann        : Meta GGA functionals, TD-DFT gradient, OOMP2, MP2 Hessian
   Martin Krupicka        : Initial AUTO-CI
   Lucas Lang             : DCDCAS
   Marvin Lechner         : AUTO-CI (C++ implementation), FIC-MRCC
   Dagmar Lenk            : GEPOL surface, SMD
   Dimitrios Liakos       : Extrapolation schemes; Compound Job, initial MDCI parallelization
   Dimitrios Manganas     : Further ROCIS development; embedding schemes
   Dimitrios Pantazis     : SARC Basis sets
   Anastasios Papadopoulos: AUTO-CI, single reference methods and gradients
   Taras Petrenko         : DFT Hessian,TD-DFT gradient, ASA, ECA, R-Raman, ABS, FL, XAS/XES, NRVS
   Peter Pinski           : DLPNO-MP2, DLPNO-MP2 Gradient
   Christoph Reimann      : Effective Core Potentials
   Marius Retegan         : Local ZFS, SOC
   Christoph Riplinger    : Optimizer, TS searches, QM/MM, DLPNO-CCSD(T), (RO)-DLPNO pert. Triples
   Tobias Risthaus        : Range-separated hybrids, TD-DFT gradient, RPA, STAB
   Michael Roemelt        : Original ROCIS implementation
   Masaaki Saitow         : Open-shell DLPNO-CCSD energy and density
   Barbara Sandhoefer     : DKH picture change effects
   Avijit Sen             : IP-ROCIS
   Kantharuban Sivalingam : CASSCF convergence, NEVPT2, FIC-MRCI
   Bernardo de Souza      : ESD, SOC TD-DFT
   Georgi Stoychev        : AutoAux, RI-MP2 NMR, DLPNO-MP2 response
   Willem Van den Heuvel  : Paramagnetic NMR
   Boris Wezisla          : Elementary symmetry handling
   Frank Wennmohs         : Technical directorship


 We gratefully acknowledge several colleagues who have allowed us to
 interface, adapt or use parts of their codes:
   Stefan Grimme, W. Hujo, H. Kruse, P. Pracht,  : VdW corrections, initial TS optimization,
                  C. Bannwarth, S. Ehlert          DFT functionals, gCP, sTDA/sTD-DF
   Ed Valeev, F. Pavosevic, A. Kumar             : LibInt (2-el integral package), F12 methods
   Garnet Chan, S. Sharma, J. Yang, R. Olivares  : DMRG
   Ulf Ekstrom                                   : XCFun DFT Library
   Mihaly Kallay                                 : mrcc  (arbitrary order and MRCC methods)
   Jiri Pittner, Ondrej Demel                    : Mk-CCSD
   Frank Weinhold                                : gennbo (NPA and NBO analysis)
   Christopher J. Cramer and Donald G. Truhlar   : smd solvation model
   Lars Goerigk                                  : TD-DFT with DH, B97 family of functionals
   V. Asgeirsson, H. Jonsson                     : NEB implementation
   FAccTs GmbH                                   : IRC, NEB, NEB-TS, DLPNO-Multilevel, CI-OPT
                                                   MM, QMMM, 2- and 3-layer-ONIOM, Crystal-QMMM,
                                                   LR-CPCM, SF, NACMEs, symmetry and pop. for TD-DFT,
                                                   nearIR, NL-DFT gradient (VV10), updates on ESD,
                                                   ML-optimized integration grids
   S Lehtola, MJT Oliveira, MAL Marques          : LibXC Library
   Liviu Ungur et al                             : ANISO software


 Your calculation uses the libint2 library for the computation of 2-el integrals
 For citations please refer to: http://libint.valeyev.net

 Your ORCA version has been built with support for libXC version: 5.1.0
 For citations please refer to: https://tddft.org/programs/libxc/

 This ORCA versions uses:
   CBLAS   interface :  Fast vector & matrix operations
   LAPACKE interface :  Fast linear algebra routines
   SCALAPACK package :  Parallel linear algebra routines
   Shared memory     :  Shared parallel matrices
   BLAS/LAPACK       :  OpenBLAS 0.3.15  USE64BITINT DYNAMIC_ARCH NO_AFFINITY Haswell SINGLE_THREADED
        Core in use  :  Haswell
   Copyright (c) 2011-2014, The OpenBLAS Project


================================================================================

----- Orbital basis set information -----
Your calculation utilizes the basis: cc-pVDZ 
       H, B-Ne : Obtained from the ccRepo (grant-hill.group.shef.ac.uk/ccrepo) Feb. 2017
                 T. H. Dunning, Jr., J. Chem. Phys. 90, 1007 (1989)
            He : Obtained from the ccRepo (grant-hill.group.shef.ac.uk/ccrepo) Feb. 2017
                 D. E. Woon, T. H. Dunning, Jr., J. Chem. Phys. 100, 2975 (1994)
  Li-Be, Na-Mg : Obtained from the ccRepo (grant-hill.group.shef.ac.uk/ccrepo) Feb. 2017
                 B. P. Prascher, D. E. Woon, K. A. Peterson, T. H. Dunning, Jr., A. K. Wilson, Theor. Chem. Acc. 128, 69 (2011)
         Al-Ar : Obtained from the ccRepo (grant-hill.group.shef.ac.uk/ccrepo) Feb. 2017
                 D. E. Woon, T. H. Dunning, Jr., J. Chem. Phys. 98, 1358 (1993)
            Ca : Obtained from the Peterson Research Group Website (tyr0.chem.wsu.edu/~kipeters) Feb. 2017
                 J. Koput, K. A. Peterson, J. Phys. Chem. 106, 9595 (2002)
         Sc-Zn : Obtained from the ccRepo (grant-hill.group.shef.ac.uk/ccrepo) Feb. 2017
                 N. B. Balabanov, K. A. Peterson, J. Chem. Phys. 123, 064107 (2005)
                 N. B. Balabanov, K. A. Peterson, J. Chem. Phys. 125, 074110 (2006)
         Ga-Kr : Obtained from the ccRepo (grant-hill.group.shef.ac.uk/ccrepo) Feb. 2017
                 A. K. Wilson, D. E. Woon, K. A. Peterson, T. H. Dunning, Jr., J. Chem. Phys. 110, 7667 (1999)

----- AuxJ basis set information -----
Your calculation utilizes the auxiliary basis: def2/J
   F. Weigend, Phys. Chem. Chem. Phys. 8, 1057 (2006).

================================================================================
                                        WARNINGS
                       Please study these warnings very carefully!
================================================================================

INFO   : Checking CIS options ...

INFO   : the flag for use of the SHARK integral package has been found!

================================================================================
                                       INPUT FILE
================================================================================
NAME = acrolien.1063.com
|  1> ! B3LYP cc-pVDZ
|  2> !TightSCF
|  3> %scf
|  4>  ConvForced true
|  5>  convergence tight
|  6>  MaxIter 500
|  7> end
|  8>  
|  9> %tddft 
| 10>  nroots 1
| 11> end
| 12> 
| 13> # 	23582
| 14> * xyz 0 1
| 15> 		C   -0.585508  -0.405813   0.036681
| 16> 		O   -0.537347  -1.618773  -0.009323
| 17> 		C    0.603933   0.418860  -0.014150
| 18> 		C    1.830532  -0.138362   0.011385
| 19> 		H   -1.594464   0.041925  -0.199777
| 20> 		H    0.444560   1.492325   0.066253
| 21> 		H    1.738723  -1.385416  -0.004601
| 22> 		H    2.841057   0.272344  -0.118900
| 23> *
| 24> 
| 25>                          ****END OF INPUT****
================================================================================

                       ****************************
                       * Single Point Calculation *
                       ****************************

---------------------------------
CARTESIAN COORDINATES (ANGSTROEM)
---------------------------------
  C     -0.585508   -0.405813    0.036681
  O     -0.537347   -1.618773   -0.009323
  C      0.603933    0.418860   -0.014150
  C      1.830532   -0.138362    0.011385
  H     -1.594464    0.041925   -0.199777
  H      0.444560    1.492325    0.066253
  H      1.738723   -1.385416   -0.004601
  H      2.841057    0.272344   -0.118900

----------------------------
CARTESIAN COORDINATES (A.U.)
----------------------------
  NO LB      ZA    FRAG     MASS         X           Y           Z
   0 C     6.0000    0    12.011   -1.106450   -0.766875    0.069317
   1 O     8.0000    0    15.999   -1.015439   -3.059038   -0.017618
   2 C     6.0000    0    12.011    1.141268    0.791531   -0.026740
   3 C     6.0000    0    12.011    3.459204   -0.261466    0.021515
   4 H     1.0000    0     1.008   -3.013100    0.079227   -0.377524
   5 H     1.0000    0     1.008    0.840097    2.820086    0.125200
   6 H     1.0000    0     1.008    3.285710   -2.618057   -0.008695
   7 H     1.0000    0     1.008    5.368820    0.514656   -0.224688

--------------------------------
INTERNAL COORDINATES (ANGSTROEM)
--------------------------------
 C      0   0   0     0.000000000000     0.00000000     0.00000000
 O      1   0   0     1.214787146597     0.00000000     0.00000000
 C      1   2   0     1.448253858953   122.32217212     0.00000000
 C      3   1   2     1.347476716055   120.76232448   353.69191768
 H      1   2   3     1.128881708747   115.05739046   161.81731998
 H      3   1   2     1.088205633951   116.02968525   181.86100633
 H      4   3   1     1.250531136595   110.20058556     4.16866022
 H      4   3   1     1.098551034448   132.88286731   172.64871078

---------------------------
INTERNAL COORDINATES (A.U.)
---------------------------
 C      0   0   0     0.000000000000     0.00000000     0.00000000
 O      1   0   0     2.295615018076     0.00000000     0.00000000
 C      1   2   0     2.736803165815   122.32217212     0.00000000
 C      3   1   2     2.546361965179   120.76232448   353.69191768
 H      1   2   3     2.133277267125   115.05739046   161.81731998
 H      3   1   2     2.056410625558   116.02968525   181.86100633
 H      4   3   1     2.363161370105   110.20058556     4.16866022
 H      4   3   1     2.075960599242   132.88286731   172.64871078

---------------------
BASIS SET INFORMATION
---------------------
There are 3 groups of distinct atoms

 Group   1 Type C   : 17s4p1d contracted to 3s2p1d pattern {881/31/1}
 Group   2 Type O   : 17s4p1d contracted to 3s2p1d pattern {881/31/1}
 Group   3 Type H   : 4s1p contracted to 2s1p pattern {31/1}

Atom   0C    basis set group =>   1
Atom   1O    basis set group =>   2
Atom   2C    basis set group =>   1
Atom   3C    basis set group =>   1
Atom   4H    basis set group =>   3
Atom   5H    basis set group =>   3
Atom   6H    basis set group =>   3
Atom   7H    basis set group =>   3
---------------------------------
AUXILIARY/J BASIS SET INFORMATION
---------------------------------
There are 3 groups of distinct atoms

 Group   1 Type C   : 12s5p4d2f1g contracted to 6s4p3d1f1g pattern {711111/2111/211/2/1}
 Group   2 Type O   : 12s5p4d2f1g contracted to 6s4p3d1f1g pattern {711111/2111/211/2/1}
 Group   3 Type H   : 5s2p1d contracted to 3s1p1d pattern {311/2/1}

Atom   0C    basis set group =>   1
Atom   1O    basis set group =>   2
Atom   2C    basis set group =>   1
Atom   3C    basis set group =>   1
Atom   4H    basis set group =>   3
Atom   5H    basis set group =>   3
Atom   6H    basis set group =>   3
Atom   7H    basis set group =>   3
------------------------------------------------------------------------------
                           ORCA GTO INTEGRAL CALCULATION
                           -- RI-GTO INTEGRALS CHOSEN --
------------------------------------------------------------------------------
------------------------------------------------------------------------------
                   ___                                                        
                  /   \      - P O W E R E D   B Y -                         
                 /     \                                                     
                 |  |  |   _    _      __       _____    __    __             
                 |  |  |  | |  | |    /  \     |  _  \  |  |  /  |          
                  \  \/   | |  | |   /    \    | | | |  |  | /  /          
                 / \  \   | |__| |  /  /\  \   | |_| |  |  |/  /          
                |  |  |   |  __  | /  /__\  \  |    /   |      \           
                |  |  |   | |  | | |   __   |  |    \   |  |\   \          
                \     /   | |  | | |  |  |  |  | |\  \  |  | \   \       
                 \___/    |_|  |_| |__|  |__|  |_| \__\ |__|  \__/        
                                                                              
                      - O R C A' S   B I G   F R I E N D -                    
                                      &                                       
                       - I N T E G R A L  F E E D E R -                       
                                                                              
 v1 FN, 2020, v2 2021                                                         
------------------------------------------------------------------------------


Reading SHARK input file acrolien.1063.SHARKINP.tmp ... ok
----------------------
SHARK INTEGRAL PACKAGE
----------------------

Number of atoms                             ...      8
Number of basis functions                   ...    100
Number of shells                            ...     60
Maximum angular momentum                    ...      2
Integral batch strategy                     ... SHARK/LIBINT Hybrid
RI-J (if used) integral strategy            ... SPLIT-RIJ (Revised 2003 algorithm where possible)
Printlevel                                  ...      1
Contraction scheme used                     ... PARTIAL GENERAL contraction
Coulomb Range Separation                    ... NOT USED
Exchange Range Separation                   ... NOT USED
Finite Nucleus Model                        ... NOT USED
Auxiliary Coulomb fitting basis             ... AVAILABLE
   # of basis functions in Aux-J            ...    240
   # of shells in Aux-J                     ...     80
   Maximum angular momentum in Aux-J        ...      4
Auxiliary J/K fitting basis                 ... NOT available
Auxiliary Correlation fitting basis         ... NOT available
Auxiliary 'external' fitting basis          ... NOT available
Integral threshold                          ...     2.500000e-11
Primitive cut-off                           ...     2.500000e-12
Primitive pair pre-selection threshold      ...     2.500000e-12

Calculating pre-screening integrals         ... done (  0.0 sec) Dimension = 60
Calculating pre-screening integrals (ORCA)  ... done (  0.3 sec) Dimension = 36
Organizing shell pair data                  ... done (  0.2 sec)
Shell pair information
Total number of shell pairs                 ...      1830
Shell pairs after pre-screening             ...      1537
Total number of primitive shell pairs       ...      2950
Primitive shell pairs kept                  ...      2295
          la=0 lb=0:    728 shell pairs
          la=1 lb=0:    502 shell pairs
          la=1 lb=1:     78 shell pairs
          la=2 lb=0:    171 shell pairs
          la=2 lb=1:     48 shell pairs
          la=2 lb=2:     10 shell pairs

Calculating one electron integrals          ... done (  0.0 sec)
Calculating RI/J V-Matrix + Cholesky decomp.... done (  1.5 sec)
Calculating Nuclear repulsion               ... done (  0.0 sec) ENN=    105.021107137133 Eh

SHARK setup successfully completed in   4.7 seconds

Maximum memory used throughout the entire GTOINT-calculation: 14.2 MB
-------------------------------------------------------------------------------
                                 ORCA SCF
-------------------------------------------------------------------------------

------------
SCF SETTINGS
------------
Hamiltonian:
 Density Functional     Method          .... DFT(GTOs)
 Exchange Functional    Exchange        .... B88
   X-Alpha parameter    XAlpha          ....  0.666667
   Becke's b parameter  XBeta           ....  0.004200
 Correlation Functional Correlation     .... LYP
 LDA part of GGA corr.  LDAOpt          .... VWN-5
 Gradients option       PostSCFGGA      .... off
 Hybrid DFT is turned on
   Fraction HF Exchange ScalHFX         ....  0.200000
   Scaling of DF-GGA-X  ScalDFX         ....  0.720000
   Scaling of DF-GGA-C  ScalDFC         ....  0.810000
   Scaling of DF-LDA-C  ScalLDAC        ....  1.000000
   Perturbative correction              ....  0.000000
   Density functional embedding theory  .... OFF
   NL short-range parameter             ....  4.800000
 RI-approximation to the Coulomb term is turned on
   Number of AuxJ basis functions       .... 240
   RIJ-COSX (HFX calculated with COS-X)).... on


General Settings:
 Integral files         IntName         .... acrolien.1063
 Hartree-Fock type      HFTyp           .... RHF
 Total Charge           Charge          ....    0
 Multiplicity           Mult            ....    1
 Number of Electrons    NEL             ....   30
 Basis Dimension        Dim             ....   76
 Nuclear Repulsion      ENuc            ....    105.0211071371 Eh

Convergence Acceleration:
 DIIS                   CNVDIIS         .... on
   Start iteration      DIISMaxIt       ....    12
   Startup error        DIISStart       ....  0.200000
   # of expansion vecs  DIISMaxEq       ....     5
   Bias factor          DIISBfac        ....   1.050
   Max. coefficient     DIISMaxC        ....  10.000
 Trust-Rad. Augm. Hess. CNVTRAH         .... auto
   Auto Start mean grad. ratio tolernc. ....  1.125000
   Auto Start start iteration           ....    20
   Auto Start num. interpolation iter.  ....    10
   Max. Number of Micro iterations      ....    16
   Max. Number of Macro iterations      .... Maxiter - #DIIS iter
   Number of Davidson start vectors     ....     2
   Converg. threshold I  (grad. norm)   ....   1.000e-05
   Converg. threshold II (energy diff.) ....   1.000e-08
   Grad. Scal. Fac. for Micro threshold ....   0.100
   Minimum threshold for Micro iter.    ....   0.010
   NR start threshold (gradient norm)   ....   0.001
   Initial trust radius                 ....   0.400
   Minimum AH scaling param. (alpha)    ....   1.000
   Maximum AH scaling param. (alpha)    .... 1000.000
   Orbital update algorithm             .... Taylor
   White noise on init. David. guess    .... on
   Maximum white noise                  ....   0.010
   Quad. conv. algorithm                .... NR
 SOSCF                  CNVSOSCF        .... on
   Start iteration      SOSCFMaxIt      ....   150
   Startup grad/error   SOSCFStart      ....  0.003300
 Level Shifting         CNVShift        .... on
   Level shift para.    LevelShift      ....    0.2500
   Turn off err/grad.   ShiftErr        ....    0.0010
 Zerner damping         CNVZerner       .... off
 Static damping         CNVDamp         .... on
   Fraction old density DampFac         ....    0.7000
   Max. Damping (<1)    DampMax         ....    0.9800
   Min. Damping (>=0)   DampMin         ....    0.0000
   Turn off err/grad.   DampErr         ....    0.1000
 Fernandez-Rico         CNVRico         .... off

SCF Procedure:
 Maximum # iterations   MaxIter         ....   500
 SCF integral mode      SCFMode         .... Direct
   Integral package                     .... SHARK and LIBINT hybrid scheme
 Reset frequency        DirectResetFreq ....    20
 Integral Threshold     Thresh          ....  2.500e-11 Eh
 Primitive CutOff       TCut            ....  2.500e-12 Eh

Convergence Tolerance:
 Convergence Check Mode ConvCheckMode   .... Total+1el-Energy
 Convergence forced     ConvForced      .... 1
 Energy Change          TolE            ....  1.000e-08 Eh
 1-El. energy change                    ....  1.000e-05 Eh
 Orbital Gradient       TolG            ....  1.000e-05
 Orbital Rotation angle TolX            ....  1.000e-05
 DIIS Error             TolErr          ....  5.000e-07


Diagonalization of the overlap matrix:
Smallest eigenvalue                        ... 2.584e-03
Time for diagonalization                   ...    0.001 sec
Threshold for overlap eigenvalues          ... 1.000e-08
Number of eigenvalues below threshold      ... 0
Time for construction of square roots      ...    0.001 sec
Total time needed                          ...    0.002 sec

Time for model grid setup =    0.343 sec

------------------------------
INITIAL GUESS: MODEL POTENTIAL
------------------------------
Loading Hartree-Fock densities                     ... done
Calculating cut-offs                               ... done
Initializing the effective Hamiltonian             ... done
Setting up the integral package (SHARK)            ... done
Starting the Coulomb interaction                   ... done (   0.8 sec)
Reading the grid                                   ... done
Mapping shells                                     ... done
Starting the XC term evaluation                    ... done (   0.1 sec)
  promolecular density results
     # of electrons  =     29.998909270
     EX              =    -24.723024141
     EC              =     -0.995429327
     EX+EC           =    -25.718453468
Transforming the Hamiltonian                       ... done (   0.0 sec)
Diagonalizing the Hamiltonian                      ... done (   0.0 sec)
Back transforming the eigenvectors                 ... done (   0.0 sec)
Now organizing SCF variables                       ... done
                      ------------------
                      INITIAL GUESS DONE (   1.9 sec)
                      ------------------
-------------------
DFT GRID GENERATION
-------------------

General Integration Accuracy     IntAcc      ... 4.388
Radial Grid Type                 RadialGrid  ... OptM3 with GC (2021)
Angular Grid (max. ang.)         AngularGrid ... 4 (Lebedev-302)
Angular grid pruning method      GridPruning ... 4 (adaptive)
Weight generation scheme         WeightScheme... Becke
Basis function cutoff            BFCut       ... 1.0000e-11
Integration weight cutoff        WCut        ... 1.0000e-14
Angular grids for H and He will be reduced by one unit
Partially contracted basis set               ... off
Rotationally invariant grid construction     ... off

Total number of grid points                  ...    37373
Total number of batches                      ...      589
Average number of points per batch           ...       63
Average number of grid points per atom       ...     4672
Time for grid setup =    1.036 sec

--------------------
COSX GRID GENERATION
--------------------

GRIDX 1
-------
General Integration Accuracy     IntAcc      ... 3.816
Radial Grid Type                 RadialGrid  ... OptM3 with GC (2021)
Angular Grid (max. ang.)         AngularGrid ... 1 (Lebedev-50)
Angular grid pruning method      GridPruning ... 4 (adaptive)
Weight generation scheme         WeightScheme... Becke
Basis function cutoff            BFCut       ... 1.0000e-11
Integration weight cutoff        WCut        ... 1.0000e-14
Angular grids for H and He will be reduced by one unit
Partially contracted basis set               ... on
Rotationally invariant grid construction     ... off

Total number of grid points                  ...     4796
Total number of batches                      ...       78
Average number of points per batch           ...       61
Average number of grid points per atom       ...      600
UseSFitting                                  ... on

GRIDX 2
-------
General Integration Accuracy     IntAcc      ... 4.020
Radial Grid Type                 RadialGrid  ... OptM3 with GC (2021)
Angular Grid (max. ang.)         AngularGrid ... 2 (Lebedev-110)
Angular grid pruning method      GridPruning ... 4 (adaptive)
Weight generation scheme         WeightScheme... Becke
Basis function cutoff            BFCut       ... 1.0000e-11
Integration weight cutoff        WCut        ... 1.0000e-14
Angular grids for H and He will be reduced by one unit
Partially contracted basis set               ... on
Rotationally invariant grid construction     ... off

Total number of grid points                  ...    10540
Total number of batches                      ...      168
Average number of points per batch           ...       62
Average number of grid points per atom       ...     1318
UseSFitting                                  ... on

GRIDX 3
-------
General Integration Accuracy     IntAcc      ... 4.338
Radial Grid Type                 RadialGrid  ... OptM3 with GC (2021)
Angular Grid (max. ang.)         AngularGrid ... 3 (Lebedev-194)
Angular grid pruning method      GridPruning ... 4 (adaptive)
Weight generation scheme         WeightScheme... Becke
Basis function cutoff            BFCut       ... 1.0000e-11
Integration weight cutoff        WCut        ... 1.0000e-14
Angular grids for H and He will be reduced by one unit
Partially contracted basis set               ... on
Rotationally invariant grid construction     ... off

Total number of grid points                  ...    23286
Total number of batches                      ...      368
Average number of points per batch           ...       63
Average number of grid points per atom       ...     2911
UseSFitting                                  ... on

Time for X-Grid setup             =    6.580 sec

 re-compute Schwartz prescreening matrix in partically contracted basis (1) ...done (   0.082 sec)
--------------
SCF ITERATIONS
--------------
ITER       Energy         Delta-E        Max-DP      RMS-DP      [F,P]     Damp
               ***  Starting incremental Fock matrix formation  ***
  0   -191.6616794499   0.000000000000 0.10703111  0.00433459  0.2574655 0.7000
  1   -191.7236274210  -0.061947971175 0.06216480  0.00271730  0.0977624 0.7000
                               ***Turning on DIIS***
  2   -191.7441728483  -0.020545427279 0.06165271  0.00341971  0.0327841 0.0000
  3   -191.7810498875  -0.036877039211 0.05349493  0.00212457  0.0496819 0.0000
  4   -191.7875747900  -0.006524902495 0.01037671  0.00055407  0.0219333 0.0000
                      *** Initiating the SOSCF procedure ***
                           *** Shutting down DIIS ***
                      *** Re-Reading the Fockian *** 
                      *** Removing any level shift *** 
ITER      Energy       Delta-E        Grad      Rot      Max-DP    RMS-DP
  5   -191.78851336  -0.0009385713  0.000830  0.000830  0.002668  0.000153
               *** Restarting incremental Fock matrix formation ***
  6   -191.78855292  -0.0000395596  0.000533  0.001572  0.002266  0.000118
  7   -191.78854929   0.0000036332  0.000780  0.001086  0.001395  0.000049
  8   -191.78855691  -0.0000076214  0.000083  0.000201  0.000324  0.000020
  9   -191.78855684   0.0000000666  0.000105  0.000110  0.000183  0.000009
 10   -191.78855703  -0.0000001832  0.000031  0.000121  0.000113  0.000005
 11   -191.78855701   0.0000000193  0.000049  0.000075  0.000063  0.000003
                  ***Gradient check signals convergence***
              ***Rediagonalizing the Fockian in SOSCF/NRSCF***

               *****************************************************
               *                     SUCCESS                       *
               *           SCF CONVERGED AFTER  12 CYCLES          *
               *****************************************************

Old exchange energy                            =     -5.015817851 Eh
New exchange energy                            =     -5.015815699 Eh
Exchange energy change after final integration =      0.000002152 Eh
Total energy after final integration           =   -191.788554885 Eh
Final COS-X integration done in                =     1.858 sec

----------------
TOTAL SCF ENERGY
----------------

Total Energy       :         -191.78855488 Eh           -5218.83190 eV

Components:
Nuclear Repulsion  :          105.02110714 Eh            2857.76961 eV
Electronic Energy  :         -296.80966202 Eh           -8076.60151 eV
One Electron Energy:         -467.37546711 Eh          -12717.93303 eV
Two Electron Energy:          170.56580508 Eh            4641.33152 eV
Max COSX asymmetry :            0.00000107 Eh               0.00003 eV

Virial components:
Potential Energy   :         -382.28680957 Eh          -10402.55294 eV
Kinetic Energy     :          190.49825469 Eh            5183.72105 eV
Virial Ratio       :            2.00677329


DFT components:
N(Alpha)           :       15.000003645535 electrons
N(Beta)            :       15.000003645535 electrons
N(Total)           :       30.000007291070 electrons
E(X)               :      -19.945963396798 Eh       
E(C)               :       -1.182267210544 Eh       
E(XC)              :      -21.128230607342 Eh       
DFET-embed. en.    :        0.000000000000 Eh       

---------------
SCF CONVERGENCE
---------------

  Last Energy change         ...   -3.0428e-08  Tolerance :   1.0000e-08
  Last MAX-Density change    ...    3.5527e-15  Tolerance :   1.0000e-07
  Last RMS-Density change    ...    7.7178e-17  Tolerance :   5.0000e-09
  Last Orbital Gradient      ...    1.3382e-06  Tolerance :   1.0000e-05
  Last Orbital Rotation      ...    2.4761e-06  Tolerance :   1.0000e-05

             **** THE GBW FILE WAS UPDATED (acrolien.1063.gbw) ****
             **** DENSITY acrolien.1063.scfp WAS UPDATED ****
             **** ENERGY FILE WAS UPDATED (acrolien.1063.en.tmp) ****
             **** THE GBW FILE WAS UPDATED (acrolien.1063.gbw) ****
             **** DENSITY acrolien.1063.scfp WAS UPDATED ****
----------------
ORBITAL ENERGIES
----------------

  NO   OCC          E(Eh)            E(eV) 
   0   2.0000     -19.134716      -520.6821 
   1   2.0000     -10.272698      -279.5343 
   2   2.0000     -10.226858      -278.2870 
   3   2.0000     -10.206154      -277.7236 
   4   2.0000      -1.044508       -28.4225 
   5   2.0000      -0.792286       -21.5592 
   6   2.0000      -0.652941       -17.7674 
   7   2.0000      -0.536964       -14.6115 
   8   2.0000      -0.506248       -13.7757 
   9   2.0000      -0.448083       -12.1929 
  10   2.0000      -0.424953       -11.5636 
  11   2.0000      -0.398409       -10.8413 
  12   2.0000      -0.354798        -9.6545 
  13   2.0000      -0.285519        -7.7694 
  14   2.0000      -0.255416        -6.9502 
  15   0.0000      -0.074844        -2.0366 
  16   0.0000       0.053408         1.4533 
  17   0.0000       0.074542         2.0284 
  18   0.0000       0.079100         2.1524 
  19   0.0000       0.120267         3.2726 
  20   0.0000       0.131106         3.5676 
  21   0.0000       0.248724         6.7681 
  22   0.0000       0.292923         7.9708 
  23   0.0000       0.310264         8.4427 
  24   0.0000       0.433352        11.7921 
  25   0.0000       0.440563        11.9883 
  26   0.0000       0.451996        12.2994 
  27   0.0000       0.499794        13.6001 
  28   0.0000       0.504162        13.7189 
  29   0.0000       0.521060        14.1788 
  30   0.0000       0.568126        15.4595 
  31   0.0000       0.596476        16.2309 
  32   0.0000       0.637034        17.3346 
  33   0.0000       0.649866        17.6838 
  34   0.0000       0.702104        19.1052 
  35   0.0000       0.744467        20.2580 
  36   0.0000       0.766763        20.8647 
  37   0.0000       0.864136        23.5143 
  38   0.0000       0.897782        24.4299 
  39   0.0000       0.931332        25.3428 
  40   0.0000       0.974181        26.5088 
  41   0.0000       1.011399        27.5216 
  42   0.0000       1.025384        27.9021 
  43   0.0000       1.064430        28.9646 
  44   0.0000       1.089749        29.6536 
  45   0.0000       1.167598        31.7720 
  46   0.0000       1.180594        32.1256 
  47   0.0000       1.307022        35.5659 
  48   0.0000       1.395253        37.9668 
  49   0.0000       1.460237        39.7351 
  50   0.0000       1.510638        41.1065 
  51   0.0000       1.517392        41.2903 
  52   0.0000       1.563941        42.5570 
  53   0.0000       1.580982        43.0207 
  54   0.0000       1.617450        44.0130 
  55   0.0000       1.648938        44.8699 
  56   0.0000       1.701128        46.2900 
  57   0.0000       1.751280        47.6548 
  58   0.0000       1.789158        48.6855 
  59   0.0000       1.839377        50.0520 
  60   0.0000       1.880916        51.1823 
  61   0.0000       1.917680        52.1827 
  62   0.0000       2.043517        55.6069 
  63   0.0000       2.052176        55.8426 
  64   0.0000       2.073840        56.4320 
  65   0.0000       2.160355        58.7863 
  66   0.0000       2.321522        63.1718 
  67   0.0000       2.392291        65.0975 
  68   0.0000       2.446612        66.5757 
  69   0.0000       2.608032        70.9682 
  70   0.0000       2.703653        73.5702 
  71   0.0000       2.793952        76.0273 
  72   0.0000       2.939731        79.9941 
  73   0.0000       3.083497        83.9062 
  74   0.0000       3.401294        92.5539 
  75   0.0000       3.466711        94.3340 

                    ********************************
                    * MULLIKEN POPULATION ANALYSIS *
                    ********************************

-----------------------
MULLIKEN ATOMIC CHARGES
-----------------------
   0 C :    0.170342
   1 O :   -0.198427
   2 C :   -0.080655
   3 C :    0.009306
   4 H :   -0.008538
   5 H :   -0.010095
   6 H :    0.071709
   7 H :    0.046358
Sum of atomic charges:    0.0000000

--------------------------------
MULLIKEN REDUCED ORBITAL CHARGES
--------------------------------
  0 C s       :     3.101540  s :     3.101540
      pz      :     0.780811  p :     2.582952
      px      :     0.918953
      py      :     0.883188
      dz2     :     0.005481  d :     0.145166
      dxz     :     0.006417
      dyz     :     0.029345
      dx2y2   :     0.037006
      dxy     :     0.066917
  1 O s       :     3.752250  s :     3.752250
      pz      :     1.273774  p :     4.427889
      px      :     1.787641
      py      :     1.366475
      dz2     :     0.002080  d :     0.018288
      dxz     :     0.000027
      dyz     :     0.005577
      dx2y2   :     0.006540
      dxy     :     0.004065
  2 C s       :     3.153742  s :     3.153742
      pz      :     1.005111  p :     2.868545
      px      :     0.952518
      py      :     0.910916
      dz2     :     0.002903  d :     0.058368
      dxz     :     0.007665
      dyz     :     0.003708
      dx2y2   :     0.023475
      dxy     :     0.020616
  3 C s       :     3.158138  s :     3.158138
      pz      :     0.859952  p :     2.791446
      px      :     0.922602
      py      :     1.008892
      dz2     :     0.001290  d :     0.041111
      dxz     :     0.007996
      dyz     :     0.001806
      dx2y2   :     0.017734
      dxy     :     0.012285
  4 H s       :     0.983897  s :     0.983897
      pz      :     0.003871  p :     0.024640
      px      :     0.016120
      py      :     0.004649
  5 H s       :     0.981001  s :     0.981001
      pz      :     0.005969  p :     0.029094
      px      :     0.004671
      py      :     0.018454
  6 H s       :     0.904259  s :     0.904259
      pz      :     0.002938  p :     0.024033
      px      :     0.004390
      py      :     0.016705
  7 H s       :     0.924307  s :     0.924307
      pz      :     0.005319  p :     0.029335
      px      :     0.016966
      py      :     0.007050


                     *******************************
                     * LOEWDIN POPULATION ANALYSIS *
                     *******************************

----------------------
LOEWDIN ATOMIC CHARGES
----------------------
   0 C :   -0.040727
   1 O :   -0.008367
   2 C :   -0.090731
   3 C :    0.018678
   4 H :    0.003910
   5 H :    0.025512
   6 H :    0.060299
   7 H :    0.031427

-------------------------------
LOEWDIN REDUCED ORBITAL CHARGES
-------------------------------
  0 C s       :     2.868084  s :     2.868084
      pz      :     0.766006  p :     2.790923
      px      :     1.021430
      py      :     1.003487
      dz2     :     0.021088  d :     0.381720
      dxz     :     0.015093
      dyz     :     0.061610
      dx2y2   :     0.099338
      dxy     :     0.184591
  1 O s       :     3.496296  s :     3.496296
      pz      :     1.255033  p :     4.480358
      px      :     1.747741
      py      :     1.477583
      dz2     :     0.004331  d :     0.031713
      dxz     :     0.000025
      dyz     :     0.006553
      dx2y2   :     0.013523
      dxy     :     0.007281
  2 C s       :     2.840992  s :     2.840992
      pz      :     0.959125  p :     3.057223
      px      :     1.069707
      py      :     1.028390
      dz2     :     0.014919  d :     0.192516
      dxz     :     0.021070
      dyz     :     0.007859
      dx2y2   :     0.078699
      dxy     :     0.069970
  3 C s       :     2.897706  s :     2.897706
      pz      :     0.844145  p :     2.951632
      px      :     1.057159
      py      :     1.050328
      dz2     :     0.008677  d :     0.131985
      dxz     :     0.017501
      dyz     :     0.003614
      dx2y2   :     0.063085
      dxy     :     0.039109
  4 H s       :     0.925037  s :     0.925037
      pz      :     0.011958  p :     0.071054
      px      :     0.043599
      py      :     0.015497
  5 H s       :     0.892491  s :     0.892491
      pz      :     0.018102  p :     0.081997
      px      :     0.015250
      py      :     0.048645
  6 H s       :     0.880981  s :     0.880981
      pz      :     0.007880  p :     0.058720
      px      :     0.010095
      py      :     0.040745
  7 H s       :     0.886064  s :     0.886064
      pz      :     0.015311  p :     0.082509
      px      :     0.044634
      py      :     0.022564


                      *****************************
                      * MAYER POPULATION ANALYSIS *
                      *****************************

  NA   - Mulliken gross atomic population
  ZA   - Total nuclear charge
  QA   - Mulliken gross atomic charge
  VA   - Mayer's total valence
  BVA  - Mayer's bonded valence
  FA   - Mayer's free valence

  ATOM       NA         ZA         QA         VA         BVA        FA
  0 C      5.8297     6.0000     0.1703     4.1744     4.1744    -0.0000
  1 O      8.1984     8.0000    -0.1984     2.3353     2.3353     0.0000
  2 C      6.0807     6.0000    -0.0807     3.9844     3.9844    -0.0000
  3 C      5.9907     6.0000     0.0093     3.9084     3.9084    -0.0000
  4 H      1.0085     1.0000    -0.0085     0.9654     0.9654     0.0000
  5 H      1.0101     1.0000    -0.0101     0.9783     0.9783     0.0000
  6 H      0.9283     1.0000     0.0717     1.0058     1.0058    -0.0000
  7 H      0.9536     1.0000     0.0464     0.9719     0.9719    -0.0000

  Mayer bond orders larger than 0.100000
B(  0-C ,  1-O ) :   2.1489 B(  0-C ,  2-C ) :   1.0702 B(  0-C ,  4-H ) :   0.9251 
B(  2-C ,  3-C ) :   1.9268 B(  2-C ,  5-H ) :   0.9514 B(  3-C ,  6-H ) :   0.9093 
B(  3-C ,  7-H ) :   0.9496 

-------
TIMINGS
-------

Total SCF time: 0 days 0 hours 1 min 41 sec 

Total time                  ....     101.659 sec
Sum of individual times     ....      72.981 sec  ( 71.8%)

Fock matrix formation       ....      63.326 sec  ( 62.3%)
  Split-RI-J                ....       0.947 sec  (  1.5% of F)
  Chain of spheres X        ....       8.988 sec  ( 14.2% of F)
  XC integration            ....      14.261 sec  ( 22.5% of F)
    Basis function eval.    ....       1.704 sec  ( 11.9% of XC)
    Density eval.           ....       0.832 sec  (  5.8% of XC)
    XC-Functional eval.     ....       0.835 sec  (  5.9% of XC)
    XC-Potential eval.      ....       0.609 sec  (  4.3% of XC)
Diagonalization             ....       0.007 sec  (  0.0%)
Density matrix formation    ....       0.001 sec  (  0.0%)
Population analysis         ....       0.004 sec  (  0.0%)
Initial guess               ....       1.588 sec  (  1.6%)
Orbital Transformation      ....       0.000 sec  (  0.0%)
Orbital Orthonormalization  ....       0.000 sec  (  0.0%)
DIIS solution               ....       0.093 sec  (  0.1%)
SOSCF solution              ....       0.005 sec  (  0.0%)
Grid generation             ....       7.959 sec  (  7.8%)

Maximum memory used throughout the entire SCF-calculation: 51.7 MB
------------------------------------------------------------------------------
                        ORCA TD-DFT/TDA CALCULATION
------------------------------------------------------------------------------

Input orbitals are from        ... acrolien.1063.gbw
CI-vector output               ... acrolien.1063.cis
Tamm-Dancoff approximation     ... operative
CIS-Integral strategy          ... AO-integrals
Integral handling              ... AO integral Direct
Max. core memory used          ... 512 MB
Reference state                ... RHF
Generation of triplets         ... off
Follow IRoot                   ... off
Number of operators            ... 1
Orbital ranges used for CIS calculation:
 Operator 0:  Orbitals   4... 14  to  15... 75
XAS localization array:
 Operator 0:  Orbitals  -1... -1

-------------------
XC-INTEGRATION GRID
-------------------

General Integration Accuracy     IntAcc      ... 3.467
Radial Grid Type                 RadialGrid  ... OptM3 with GC (2021)
Angular Grid (max. ang.)         AngularGrid ... 1 (Lebedev-50)
Angular grid pruning method      GridPruning ... 4 (adaptive)
Weight generation scheme         WeightScheme... Becke
Basis function cutoff            BFCut       ... 1.0000e-11
Integration weight cutoff        WCut        ... 1.0000e-14
Angular grids for H and He will be reduced by one unit
Partially contracted basis set               ... off
Rotationally invariant grid construction     ... off

Total number of grid points                  ...     5483
Total number of batches                      ...       91
Average number of points per batch           ...       60
Average number of grid points per atom       ...      685

---------------------
COSX-INTEGRATION GRID
---------------------

General Integration Accuracy     IntAcc      ... 3.067
Radial Grid Type                 RadialGrid  ... OptM3 with GC (2021)
Angular Grid (max. ang.)         AngularGrid ... 1 (Lebedev-50)
Angular grid pruning method      GridPruning ... 4 (adaptive)
Weight generation scheme         WeightScheme... Becke
Basis function cutoff            BFCut       ... 1.0000e-11
Integration weight cutoff        WCut        ... 1.0000e-14
Angular grids for H and He will be reduced by one unit
Partially contracted basis set               ... on
Rotationally invariant grid construction     ... off

Total number of grid points                  ...     2506
Total number of batches                      ...       46
Average number of points per batch           ...       54
Average number of grid points per atom       ...      313

---------------
TD-DFT XC SETUP
---------------

DFT calculation                         ... on
Name of the grid file                   ... acrolien.1063.grid_cis.tmp
Exchange functional (TD-DFT)            ... B88
   X-Alpha parameter    XAlpha (TD-DFT) ...  0.666667
   Becke's b parameter  XBeta (TD-DFT)  ...  0.004200
Correlation functional (TD-DFT)         ... LYP
 LDA part of GGA corr.  LDAOpt (TD-DFT) ... VWN-5
Hybrid DFT                              ... on
   Exchange mixing (TD-DFT)             ...  0.200
   GGA exch. scaling (TD-DFT)           ...  0.720
   GGA corr. scaling (TD-DFT)           ...  0.810

Building densities             ... done
Calculating rho(r) on the grid ... done
Building xc-kernel on the grid ... done
                    *** TD-DFT CALCULATION INITIALIZED ***

------------------------
DAVIDSON-DIAGONALIZATION
------------------------

Dimension of the eigenvalue problem            ...    671
Number of roots to be determined               ...      1
Maximum size of the expansion space            ...     10
Maximum number of iterations                   ...    100
Convergence tolerance for the residual         ...    2.500e-07
Convergence tolerance for the energies         ...    2.500e-07
Orthogonality tolerance                        ...    1.000e-14
Level Shift                                    ...    0.000e+00
Constructing the preconditioner                ... o.k.
Building the initial guess                     ... o.k.
Number of trial vectors determined             ...     10


                       ****Iteration    0****

   Memory handling for direct AO based CIS:
   Memory per vector needed      ...     1 MB
   Memory needed                 ...     0 MB
   Memory available              ...   512 MB
   Number of vectors per batch   ...   512
   Number of batches             ...     1
   Time for densities:            0.000
   Time for RI-J (Direct):        0.072
   Time for K (COSX):             2.130
   Time for XC-Integration:       0.081
   Time for Sigma-Completion:     0.000
   Size of expansion space: 3
   Lowest Energy          :     0.124221689030
   Maximum Energy change  :     0.124221689030 (vector 0)
   Maximum residual norm  :     0.001243862518

                       ****Iteration    1****
   Time for densities:            0.000
   Time for RI-J (Direct):        0.054
   Time for K (COSX):             1.614
   Time for XC-Integration:       0.042
   Time for Sigma-Completion:     0.000
   Size of expansion space: 4
   Lowest Energy          :     0.121763524164
   Maximum Energy change  :     0.002458164866 (vector 0)
   Maximum residual norm  :     0.000234201635

                       ****Iteration    2****
   Time for densities:            0.000
   Time for RI-J (Direct):        0.054
   Time for K (COSX):             2.633
   Time for XC-Integration:       0.043
   Time for Sigma-Completion:     0.000
   Size of expansion space: 5
   Lowest Energy          :     0.121529261672
   Maximum Energy change  :     0.000234262492 (vector 0)
   Maximum residual norm  :     0.000030251257

                       ****Iteration    3****
   Time for densities:            0.000
   Time for RI-J (Direct):        0.055
   Time for K (COSX):             0.195
   Time for XC-Integration:       0.043
   Time for Sigma-Completion:     0.000
   Size of expansion space: 6
   Lowest Energy          :     0.121499876934
   Maximum Energy change  :     0.000029384738 (vector 0)
   Maximum residual norm  :     0.000001500642

                       ****Iteration    4****
   Time for densities:            0.000
   Time for RI-J (Direct):        0.055
   Time for K (COSX):             2.569
   Time for XC-Integration:       0.043
   Time for Sigma-Completion:     0.000
   Size of expansion space: 7
   Lowest Energy          :     0.121498352069
   Maximum Energy change  :     0.000001524865 (vector 0)
   Maximum residual norm  :     0.000000087233

      *** CONVERGENCE OF RESIDUAL NORM REACHED ***

Storing the converged CI vectors               ... acrolien.1063.cis1

                 *** DAVIDSON DONE ***

Total time for solving the CIS problem:    17.201sec

------------------------------------
TD-DFT/TDA EXCITED STATES (SINGLETS)
------------------------------------

the weight of the individual excitations are printed if larger than 1.0e-02

STATE  1:  E=   0.121498 au      3.306 eV    26665.8 cm**-1 <S**2> =   0.000000
    14a ->  15a  :     0.985207 (c=  0.99257584)


-----------------------------
TD-DFT/TDA-EXCITATION SPECTRA
-----------------------------

Center of mass = (  0.5753, -0.9094, -0.0000)
Calculating the Dipole integrals                  ... done
Transforming integrals                            ... done
Calculating the Linear Momentum integrals         ... done
Transforming integrals                            ... done
Calculating angular momentum integrals            ... done
Transforming integrals                            ... done

-----------------------------------------------------------------------------
         ABSORPTION SPECTRUM VIA TRANSITION ELECTRIC DIPOLE MOMENTS
-----------------------------------------------------------------------------
State   Energy    Wavelength  fosc         T2        TX        TY        TZ  
        (cm-1)      (nm)                 (au**2)    (au)      (au)      (au) 
-----------------------------------------------------------------------------
   1   26665.8    375.0   0.000277879   0.00343  -0.03151   0.00354  -0.04925

-----------------------------------------------------------------------------
         ABSORPTION SPECTRUM VIA TRANSITION VELOCITY DIPOLE MOMENTS
-----------------------------------------------------------------------------
State   Energy    Wavelength   fosc        P2         PX        PY        PZ  
        (cm-1)      (nm)                 (au**2)     (au)      (au)      (au) 
-----------------------------------------------------------------------------
   1   26665.8    375.0   0.000710607   0.00013   0.00343  -0.00114   0.01079

-------------------------------------------------------------------
                             CD SPECTRUM
-------------------------------------------------------------------
State  Energy     Wavelength     R         MX        MY        MZ   
       (cm-1)       (nm)     (1e40*cgs)   (au)      (au)      (au)  
-------------------------------------------------------------------
   1   26665.8    375.0     -0.04278   0.00826  -0.36951  -0.03003

-------------------------------------------------------------------
         CD SPECTRUM VIA TRANSITION VELOCITY DIPOLE MOMENTS        
-------------------------------------------------------------------
State  Energy     Wavelength     R         MX        MY        MZ   
       (cm-1)       (nm)     (1e40*cgs)   (au)      (au)      (au)  
-------------------------------------------------------------------
   1   26665.8    375.0      0.48046   0.00826  -0.36951  -0.03003

Total run time:       30.373 sec

           *** ORCA-CIS/TD-DFT FINISHED WITHOUT ERROR ***

Maximum memory used throughout the entire CIS-calculation: 48.6 MB

-----------------------
CIS/TD-DFT TOTAL ENERGY
-----------------------

    E(SCF)  =   -191.788554885 Eh
    DE(CIS) =      0.121498352 Eh (Root  1)
    ----------------------------- ---------
    E(tot)  =   -191.667056532 Eh


-------------------------   --------------------
FINAL SINGLE POINT ENERGY      -191.667056532479
-------------------------   --------------------


                            ***************************************
                            *     ORCA property calculations      *
                            ***************************************

                                    ---------------------
                                    Active property flags
                                    ---------------------
   (+) Dipole Moment


------------------------------------------------------------------------------
                       ORCA ELECTRIC PROPERTIES CALCULATION
------------------------------------------------------------------------------

Dipole Moment Calculation                       ... on
Quadrupole Moment Calculation                   ... off
Polarizability Calculation                      ... off
GBWName                                         ... acrolien.1063.gbw
Electron density                                ... acrolien.1063.scfp
The origin for moment calculation is the CENTER OF MASS  = ( 0.575308, -0.909382 -0.000029)

-------------
DIPOLE MOMENT
-------------
                                X             Y             Z
Electronic contribution:     -1.69394      -1.31062       0.23018
Nuclear contribution   :      2.06291       2.18421      -0.24121
                        -----------------------------------------
Total Dipole Moment    :      0.36897       0.87359      -0.01103
                        -----------------------------------------
Magnitude (a.u.)       :      0.94837
Magnitude (Debye)      :      2.41057



--------------------
Rotational spectrum 
--------------------
 
Rotational constants in cm-1:     0.733446     0.219491     0.169208 
Rotational constants in MHz : 21988.149690  6580.184862  5072.730425 

 Dipole components along the rotational axes: 
x,y,z [a.u.] :     0.770072     0.553401    -0.012105 
x,y,z [Debye]:     1.957368     1.406635    -0.030767 

 

Timings for individual modules:

Sum of individual times         ...      144.997 sec (=   2.417 min)
GTO integral calculation        ...        5.234 sec (=   0.087 min)   3.6 %
SCF iterations                  ...      106.748 sec (=   1.779 min)  73.6 %
CIS module                      ...       33.015 sec (=   0.550 min)  22.8 %
                             ****ORCA TERMINATED NORMALLY****
TOTAL RUN TIME: 0 days 0 hours 2 minutes 33 seconds 349 msec
