
                                 *****************
                                 * O   R   C   A *
                                 *****************

                                            #,                                       
                                            ###                                      
                                            ####                                     
                                            #####                                    
                                            ######                                   
                                           ########,                                 
                                     ,,################,,,,,                         
                               ,,#################################,,                 
                          ,,##########################################,,             
                       ,#########################################, ''#####,          
                    ,#############################################,,   '####,        
                  ,##################################################,,,,####,       
                ,###########''''           ''''###############################       
              ,#####''   ,,,,##########,,,,          '''####'''          '####       
            ,##' ,,,,###########################,,,                        '##       
           ' ,,###''''                  '''############,,,                           
         ,,##''                                '''############,,,,        ,,,,,,###''
      ,#''                                            '''#######################'''  
     '                                                          ''''####''''         
             ,#######,   #######,   ,#######,      ##                                
            ,#'     '#,  ##    ##  ,#'     '#,    #''#        ######   ,####,        
            ##       ##  ##   ,#'  ##            #'  '#       #        #'  '#        
            ##       ##  #######   ##           ,######,      #####,   #    #        
            '#,     ,#'  ##    ##  '#,     ,#' ,#      #,         ##   #,  ,#        
             '#######'   ##     ##  '#######'  #'      '#     #####' # '####'        



                  #######################################################
                  #                        -***-                        #
                  #          Department of theory and spectroscopy      #
                  #    Directorship and core code : Frank Neese         #
                  #        Max Planck Institute fuer Kohlenforschung    #
                  #                Kaiser Wilhelm Platz 1               #
                  #                 D-45470 Muelheim/Ruhr               #
                  #                      Germany                        #
                  #                                                     #
                  #                  All rights reserved                #
                  #                        -***-                        #
                  #######################################################


                         Program Version 5.0.3 -  RELEASE  -


 With contributions from (in alphabetic order):
   Daniel Aravena         : Magnetic Suceptibility
   Michael Atanasov       : Ab Initio Ligand Field Theory (pilot matlab implementation)
   Alexander A. Auer      : GIAO ZORA, VPT2 properties, NMR spectrum
   Ute Becker             : Parallelization
   Giovanni Bistoni       : ED, misc. LED, open-shell LED, HFLD
   Martin Brehm           : Molecular dynamics
   Dmytro Bykov           : SCF Hessian
   Vijay G. Chilkuri      : MRCI spin determinant printing, contributions to CSF-ICE
   Dipayan Datta          : RHF DLPNO-CCSD density
   Achintya Kumar Dutta   : EOM-CC, STEOM-CC
   Dmitry Ganyushin       : Spin-Orbit,Spin-Spin,Magnetic field MRCI
   Miquel Garcia          : C-PCM and meta-GGA Hessian, CC/C-PCM, Gaussian charge scheme
   Yang Guo               : DLPNO-NEVPT2, F12-NEVPT2, CIM, IAO-localization
   Andreas Hansen         : Spin unrestricted coupled pair/coupled cluster methods
   Benjamin Helmich-Paris : MC-RPA, TRAH-SCF, COSX integrals
   Lee Huntington         : MR-EOM, pCC
   Robert Izsak           : Overlap fitted RIJCOSX, COSX-SCS-MP3, EOM
   Marcus Kettner         : VPT2
   Christian Kollmar      : KDIIS, OOCD, Brueckner-CCSD(T), CCSD density, CASPT2, CASPT2-K
   Simone Kossmann        : Meta GGA functionals, TD-DFT gradient, OOMP2, MP2 Hessian
   Martin Krupicka        : Initial AUTO-CI
   Lucas Lang             : DCDCAS
   Marvin Lechner         : AUTO-CI (C++ implementation), FIC-MRCC
   Dagmar Lenk            : GEPOL surface, SMD
   Dimitrios Liakos       : Extrapolation schemes; Compound Job, initial MDCI parallelization
   Dimitrios Manganas     : Further ROCIS development; embedding schemes
   Dimitrios Pantazis     : SARC Basis sets
   Anastasios Papadopoulos: AUTO-CI, single reference methods and gradients
   Taras Petrenko         : DFT Hessian,TD-DFT gradient, ASA, ECA, R-Raman, ABS, FL, XAS/XES, NRVS
   Peter Pinski           : DLPNO-MP2, DLPNO-MP2 Gradient
   Christoph Reimann      : Effective Core Potentials
   Marius Retegan         : Local ZFS, SOC
   Christoph Riplinger    : Optimizer, TS searches, QM/MM, DLPNO-CCSD(T), (RO)-DLPNO pert. Triples
   Tobias Risthaus        : Range-separated hybrids, TD-DFT gradient, RPA, STAB
   Michael Roemelt        : Original ROCIS implementation
   Masaaki Saitow         : Open-shell DLPNO-CCSD energy and density
   Barbara Sandhoefer     : DKH picture change effects
   Avijit Sen             : IP-ROCIS
   Kantharuban Sivalingam : CASSCF convergence, NEVPT2, FIC-MRCI
   Bernardo de Souza      : ESD, SOC TD-DFT
   Georgi Stoychev        : AutoAux, RI-MP2 NMR, DLPNO-MP2 response
   Willem Van den Heuvel  : Paramagnetic NMR
   Boris Wezisla          : Elementary symmetry handling
   Frank Wennmohs         : Technical directorship


 We gratefully acknowledge several colleagues who have allowed us to
 interface, adapt or use parts of their codes:
   Stefan Grimme, W. Hujo, H. Kruse, P. Pracht,  : VdW corrections, initial TS optimization,
                  C. Bannwarth, S. Ehlert          DFT functionals, gCP, sTDA/sTD-DF
   Ed Valeev, F. Pavosevic, A. Kumar             : LibInt (2-el integral package), F12 methods
   Garnet Chan, S. Sharma, J. Yang, R. Olivares  : DMRG
   Ulf Ekstrom                                   : XCFun DFT Library
   Mihaly Kallay                                 : mrcc  (arbitrary order and MRCC methods)
   Jiri Pittner, Ondrej Demel                    : Mk-CCSD
   Frank Weinhold                                : gennbo (NPA and NBO analysis)
   Christopher J. Cramer and Donald G. Truhlar   : smd solvation model
   Lars Goerigk                                  : TD-DFT with DH, B97 family of functionals
   V. Asgeirsson, H. Jonsson                     : NEB implementation
   FAccTs GmbH                                   : IRC, NEB, NEB-TS, DLPNO-Multilevel, CI-OPT
                                                   MM, QMMM, 2- and 3-layer-ONIOM, Crystal-QMMM,
                                                   LR-CPCM, SF, NACMEs, symmetry and pop. for TD-DFT,
                                                   nearIR, NL-DFT gradient (VV10), updates on ESD,
                                                   ML-optimized integration grids
   S Lehtola, MJT Oliveira, MAL Marques          : LibXC Library
   Liviu Ungur et al                             : ANISO software


 Your calculation uses the libint2 library for the computation of 2-el integrals
 For citations please refer to: http://libint.valeyev.net

 Your ORCA version has been built with support for libXC version: 5.1.0
 For citations please refer to: https://tddft.org/programs/libxc/

 This ORCA versions uses:
   CBLAS   interface :  Fast vector & matrix operations
   LAPACKE interface :  Fast linear algebra routines
   SCALAPACK package :  Parallel linear algebra routines
   Shared memory     :  Shared parallel matrices
   BLAS/LAPACK       :  OpenBLAS 0.3.15  USE64BITINT DYNAMIC_ARCH NO_AFFINITY Haswell SINGLE_THREADED
        Core in use  :  Haswell
   Copyright (c) 2011-2014, The OpenBLAS Project


Your calculation utilizes the geometrical counterpoise correction gCP
Please cite in your paper:
H.Kruse, S. Grimme J.Chem.Phys., 136, (2012), 154101 
   

Your calculation utilizes the atom-pairwise dispersion correction
with the Becke-Johnson damping scheme (D3BJ)
Cite in your paper:
S.Grimme, S.Ehrlich, L.Goerigk, J Comput Chem, (2011), 32, 1456–1465 
S.Grimme, J.Antony, S.Ehrlich and H.Krieg, J.Chem.Phys., 132, (2010), 154104 
   

================================================================================

----- Orbital basis set information -----
Your calculation utilizes the basis: MINIX,
   a combination of small basis sets by S. Grimme (see manual for definitions).

================================================================================
                                        WARNINGS
                       Please study these warnings very carefully!
================================================================================

INFO   : Checking CIS options ...

INFO   : the flag for use of the SHARK integral package has been found!

================================================================================
                                       INPUT FILE
================================================================================
NAME = acrolien.452.com
|  1> ! HF-3c
|  2> !TightSCF
|  3> %scf
|  4>  ConvForced true
|  5>  convergence tight
|  6>  MaxIter 500
|  7> end
|  8>  
|  9> %tddft 
| 10>  nroots 1
| 11> end
| 12> 
| 13> # 	7644
| 14> * xyz 0 1
| 15> 		C   -1.223890  -0.357291   0.038134
| 16> 		O   -1.412425  -1.438424  -0.475946
| 17> 		C   -0.013629   0.415132  -0.186297
| 18> 		C    1.299346   0.025373   0.091342
| 19> 		H   -2.051829   0.123533   0.827484
| 20> 		H   -0.293941   1.476146  -0.679609
| 21> 		H    1.523545  -0.860858   0.475108
| 22> 		H    2.177851   0.623353  -0.141689
| 23> *
| 24> 
| 25>                          ****END OF INPUT****
================================================================================

                       ****************************
                       * Single Point Calculation *
                       ****************************

---------------------------------
CARTESIAN COORDINATES (ANGSTROEM)
---------------------------------
  C     -1.223890   -0.357291    0.038134
  O     -1.412425   -1.438424   -0.475946
  C     -0.013629    0.415132   -0.186297
  C      1.299346    0.025373    0.091342
  H     -2.051829    0.123533    0.827484
  H     -0.293941    1.476146   -0.679609
  H      1.523545   -0.860858    0.475108
  H      2.177851    0.623353   -0.141689

----------------------------
CARTESIAN COORDINATES (A.U.)
----------------------------
  NO LB      ZA    FRAG     MASS         X           Y           Z
   0 C     6.0000    0    12.011   -2.312817   -0.675182    0.072063
   1 O     8.0000    0    15.999   -2.669096   -2.718227   -0.899408
   2 C     6.0000    0    12.011   -0.025755    0.784486   -0.352050
   3 C     6.0000    0    12.011    2.455408    0.047948    0.172611
   4 H     1.0000    0     1.008   -3.877395    0.233444    1.563718
   5 H     1.0000    0     1.008   -0.555468    2.789512   -1.284275
   6 H     1.0000    0     1.008    2.879083   -1.626786    0.897824
   7 H     1.0000    0     1.008    4.115542    1.177966   -0.267753

--------------------------------
INTERNAL COORDINATES (ANGSTROEM)
--------------------------------
 C      0   0   0     0.000000000000     0.00000000     0.00000000
 O      1   0   0     1.211887889334     0.00000000     0.00000000
 C      1   2   0     1.453182112748   122.56398293     0.00000000
 C      3   1   2     1.397461571217   127.12471126   300.71520532
 H      1   2   3     1.240865878811   120.77885081   182.48914687
 H      3   1   2     1.203196681713   109.75627628   119.83267821
 H      4   3   1     0.991436795624   122.59354353     0.72752277
 H      4   3   1     1.087958897379   124.25048981   176.82408956

---------------------------
INTERNAL COORDINATES (A.U.)
---------------------------
 C      0   0   0     0.000000000000     0.00000000     0.00000000
 O      1   0   0     2.290136215857     0.00000000     0.00000000
 C      1   2   0     2.746116215807   122.56398293     0.00000000
 C      3   1   2     2.640819652279   127.12471126   300.71520532
 H      1   2   3     2.344896679880   120.77885081   182.48914687
 H      3   1   2     2.273712213679   109.75627628   119.83267821
 H      4   3   1     1.873544022823   122.59354353     0.72752277
 H      4   3   1     2.055944361009   124.25048981   176.82408956

---------------------
BASIS SET INFORMATION
---------------------
There are 3 groups of distinct atoms

 Group   1 Type C   : 6s3p contracted to 2s1p pattern {33/3}
 Group   2 Type O   : 6s3p contracted to 2s1p pattern {33/3}
 Group   3 Type H   : 3s contracted to 1s pattern {3}

Atom   0C    basis set group =>   1
Atom   1O    basis set group =>   2
Atom   2C    basis set group =>   1
Atom   3C    basis set group =>   1
Atom   4H    basis set group =>   3
Atom   5H    basis set group =>   3
Atom   6H    basis set group =>   3
Atom   7H    basis set group =>   3
------------------------------------------------------------------------------
                           ORCA GTO INTEGRAL CALCULATION
------------------------------------------------------------------------------
------------------------------------------------------------------------------
                   ___                                                        
                  /   \      - P O W E R E D   B Y -                         
                 /     \                                                     
                 |  |  |   _    _      __       _____    __    __             
                 |  |  |  | |  | |    /  \     |  _  \  |  |  /  |          
                  \  \/   | |  | |   /    \    | | | |  |  | /  /          
                 / \  \   | |__| |  /  /\  \   | |_| |  |  |/  /          
                |  |  |   |  __  | /  /__\  \  |    /   |      \           
                |  |  |   | |  | | |   __   |  |    \   |  |\   \          
                \     /   | |  | | |  |  |  |  | |\  \  |  | \   \       
                 \___/    |_|  |_| |__|  |__|  |_| \__\ |__|  \__/        
                                                                              
                      - O R C A' S   B I G   F R I E N D -                    
                                      &                                       
                       - I N T E G R A L  F E E D E R -                       
                                                                              
 v1 FN, 2020, v2 2021                                                         
------------------------------------------------------------------------------


Reading SHARK input file acrolien.452.SHARKINP.tmp ... ok
----------------------
SHARK INTEGRAL PACKAGE
----------------------

Number of atoms                             ...      8
Number of basis functions                   ...     24
Number of shells                            ...     16
Maximum angular momentum                    ...      1
Integral batch strategy                     ... SHARK/LIBINT Hybrid
RI-J (if used) integral strategy            ... SPLIT-RIJ (Revised 2003 algorithm where possible)
Printlevel                                  ...      1
Contraction scheme used                     ... SEGMENTED contraction
Coulomb Range Separation                    ... NOT USED
Exchange Range Separation                   ... NOT USED
Finite Nucleus Model                        ... NOT USED
Auxiliary Coulomb fitting basis             ... NOT available
Auxiliary J/K fitting basis                 ... NOT available
Auxiliary Correlation fitting basis         ... NOT available
Auxiliary 'external' fitting basis          ... NOT available
Integral threshold                          ...     2.500000e-11
Primitive cut-off                           ...     2.500000e-12
Primitive pair pre-selection threshold      ...     2.500000e-12

Calculating pre-screening integrals         ... done (  0.0 sec) Dimension = 16
Organizing shell pair data                  ... done (  0.3 sec)
Shell pair information
Total number of shell pairs                 ...       136
Shell pairs after pre-screening             ...       133
Total number of primitive shell pairs       ...      1224
Primitive shell pairs kept                  ...       984
          la=0 lb=0:     75 shell pairs
          la=1 lb=0:     48 shell pairs
          la=1 lb=1:     10 shell pairs

Calculating one electron integrals          ... done (  0.0 sec)
Calculating Nuclear repulsion               ... done (  0.0 sec) ENN=    102.402821634151 Eh
Calculating 4-index integrals               ... 
    -> SHARK/Ints2Disk: Thresh =     2.500000e-11 TCut=    2.500000e-12 
    -> calling libint FockFlag=2 Lmax_loc=1
    ->Total LIBINT loop time =    0.000 sec
    -> L=0 0 0 0:     0.003 sec done=      2816 (=100.0%) skipped=         0 
    -> L=1 0 0 0:     0.007 sec done=      3594 (=100.0%) skipped=         0 
    -> L=1 0 1 0:     0.004 sec done=      1176 (=100.0%) skipped=         0 
    -> L=1 1 0 0:     0.002 sec done=       750 (=100.0%) skipped=         0 
    -> L=1 1 1 0:     0.004 sec done=       480 (=100.0%) skipped=         0 
    -> L=1 1 1 1:     0.001 sec done=        55 (=100.0%) skipped=         0 
    ->Total SHARK integral loop time =    0.021 sec
    -> Total Integral generation matrix time =    0.028 sec
    -> Number of small integrals   =       660
    -> Number of medium integrals  =      2146
    -> Number of large integrals   =     40979
    -> Number of MB stored         =         0 MB


SHARK setup successfully completed in   0.9 seconds

Maximum memory used throughout the entire GTOINT-calculation: 29.5 MB
-------------------------------------------------------------------------------
                                 ORCA SCF
-------------------------------------------------------------------------------

------------
SCF SETTINGS
------------
Hamiltonian:
 Ab initio Hamiltonian  Method          .... Hartree-Fock(GTOs)


General Settings:
 Integral files         IntName         .... acrolien.452
 Hartree-Fock type      HFTyp           .... RHF
 Total Charge           Charge          ....    0
 Multiplicity           Mult            ....    1
 Number of Electrons    NEL             ....   30
 Basis Dimension        Dim             ....   24
 Nuclear Repulsion      ENuc            ....    102.4028216342 Eh

Convergence Acceleration:
 DIIS                   CNVDIIS         .... on
   Start iteration      DIISMaxIt       ....    12
   Startup error        DIISStart       ....  0.200000
   # of expansion vecs  DIISMaxEq       ....     5
   Bias factor          DIISBfac        ....   1.050
   Max. coefficient     DIISMaxC        ....  10.000
 Trust-Rad. Augm. Hess. CNVTRAH         .... auto
   Auto Start mean grad. ratio tolernc. ....  1.125000
   Auto Start start iteration           ....    20
   Auto Start num. interpolation iter.  ....    10
   Max. Number of Micro iterations      ....    16
   Max. Number of Macro iterations      .... Maxiter - #DIIS iter
   Number of Davidson start vectors     ....     2
   Converg. threshold I  (grad. norm)   ....   1.000e-05
   Converg. threshold II (energy diff.) ....   1.000e-08
   Grad. Scal. Fac. for Micro threshold ....   0.100
   Minimum threshold for Micro iter.    ....   0.010
   NR start threshold (gradient norm)   ....   0.001
   Initial trust radius                 ....   0.400
   Minimum AH scaling param. (alpha)    ....   1.000
   Maximum AH scaling param. (alpha)    .... 1000.000
   Orbital update algorithm             .... Taylor
   White noise on init. David. guess    .... on
   Maximum white noise                  ....   0.010
   Quad. conv. algorithm                .... NR
 SOSCF                  CNVSOSCF        .... on
   Start iteration      SOSCFMaxIt      ....   150
   Startup grad/error   SOSCFStart      ....  0.003300
 Level Shifting         CNVShift        .... on
   Level shift para.    LevelShift      ....    0.2500
   Turn off err/grad.   ShiftErr        ....    0.0010
 Zerner damping         CNVZerner       .... off
 Static damping         CNVDamp         .... on
   Fraction old density DampFac         ....    0.7000
   Max. Damping (<1)    DampMax         ....    0.9800
   Min. Damping (>=0)   DampMin         ....    0.0000
   Turn off err/grad.   DampErr         ....    0.1000
 Fernandez-Rico         CNVRico         .... off

SCF Procedure:
 Maximum # iterations   MaxIter         ....   500
 SCF integral mode      SCFMode         .... Conventional
 Integral Threshold     Thresh          ....  2.500e-11 Eh
 Primitive CutOff       TCut            ....  2.500e-12 Eh
 Integral Buffer length BufferLength    .... 1048576
 Integral index format  IndFormat       ....     0
 Integral value format  ValFormat       ....     0
 Integral Storage       Thresh          ....  2.500e-11 Eh

Convergence Tolerance:
 Convergence Check Mode ConvCheckMode   .... Total+1el-Energy
 Convergence forced     ConvForced      .... 1
 Energy Change          TolE            ....  1.000e-08 Eh
 1-El. energy change                    ....  1.000e-05 Eh
 Orbital Gradient       TolG            ....  1.000e-05
 Orbital Rotation angle TolX            ....  1.000e-05
 DIIS Error             TolErr          ....  5.000e-07


Diagonalization of the overlap matrix:
Smallest eigenvalue                        ... 2.022e-01
Time for diagonalization                   ...    0.000 sec
Threshold for overlap eigenvalues          ... 1.000e-08
Number of eigenvalues below threshold      ... 0
Time for construction of square roots      ...    0.457 sec
Total time needed                          ...    0.458 sec

--------------------------------
INITIAL GUESS: MINIMAL BASIS EHT
--------------------------------
The minimal basis has 24 functions
EHT matrix was diagonalized
Basis set overlap was calculated now projecting the orbitals
Using GuessMode=FMatrix for the initial guess
C*T matrix was formed
Effective Fockian was calculated
Effective Fockian was diagonalized
Initial density was built
                      ------------------
                      INITIAL GUESS DONE
                      ------------------

 InCore treatment chosen:
   Memory dedicated               ...    1024 MB
   Memory needed                  ...      0 MB
   Number of tiny    integrals    ...     660
   Number of small   integrals    ...    2146
   Number of regular integrals    ...   40979

--------------
SCF ITERATIONS
--------------
ITER       Energy         Delta-E        Max-DP      RMS-DP      [F,P]     Damp
  0   -189.0466609637   0.000000000000 0.14479114  0.01447550  0.2456041 0.7000
  1   -189.1570332971  -0.110372333401 0.11249496  0.01145087  0.1648154 0.7000
                               ***Turning on DIIS***
  2   -189.2260619849  -0.069028687748 0.07002958  0.00726861  0.1148391 0.7000
  3   -189.2418650524  -0.015803067525 0.11561473  0.01382429  0.0831489 0.0000
  4   -189.3750124483  -0.133147395855 0.01615656  0.00166452  0.0060571 0.0000
  5   -189.3754950424  -0.000482594105 0.00617193  0.00072396  0.0035269 0.0000
                      *** Initiating the SOSCF procedure ***
                           *** Shutting down DIIS ***
                      *** Re-Reading the Fockian *** 
                      *** Removing any level shift *** 
ITER      Energy       Delta-E        Grad      Rot      Max-DP    RMS-DP
  6   -189.37677313  -0.0012780837  0.000890  0.000890  0.002436  0.000307
  7   -189.37734004  -0.0005669112  0.000260  0.000489  0.000645  0.000091
  8   -189.37734164  -0.0000016047  0.000098  0.000334  0.000430  0.000072
  9   -189.37734200  -0.0000003601  0.000037  0.000050  0.000118  0.000013
 10   -189.37734202  -0.0000000184  0.000018  0.000040  0.000060  0.000007
                 **** Energy Check signals convergence ****
              ***Rediagonalizing the Fockian in SOSCF/NRSCF***

               *****************************************************
               *                     SUCCESS                       *
               *           SCF CONVERGED AFTER  11 CYCLES          *
               *****************************************************


----------------
TOTAL SCF ENERGY
----------------

Total Energy       :         -189.37734203 Eh           -5153.21946 eV

Components:
Nuclear Repulsion  :          102.40282163 Eh            2786.52244 eV
Electronic Energy  :         -291.78016366 Eh           -7939.74190 eV
One Electron Energy:         -459.85225998 Eh          -12513.21615 eV
Two Electron Energy:          168.07209632 Eh            4573.47425 eV

Virial components:
Potential Energy   :         -378.34017130 Eh          -10295.15946 eV
Kinetic Energy     :          188.96282927 Eh            5141.94000 eV
Virial Ratio       :            2.00219362


---------------
SCF CONVERGENCE
---------------

  Last Energy change         ...   -7.0414e-09  Tolerance :   1.0000e-08
  Last MAX-Density change    ...    7.4356e-05  Tolerance :   1.0000e-07
  Last RMS-Density change    ...    7.2214e-06  Tolerance :   5.0000e-09
  Last Orbital Gradient      ...    1.1245e-05  Tolerance :   1.0000e-05
  Last Orbital Rotation      ...    5.0492e-05  Tolerance :   1.0000e-05

             **** THE GBW FILE WAS UPDATED (acrolien.452.gbw) ****
             **** DENSITY acrolien.452.scfp WAS UPDATED ****
             **** ENERGY FILE WAS UPDATED (acrolien.452.en.tmp) ****
             **** THE GBW FILE WAS UPDATED (acrolien.452.gbw) ****
             **** DENSITY acrolien.452.scfp WAS UPDATED ****
----------------
ORBITAL ENERGIES
----------------

  NO   OCC          E(Eh)            E(eV) 
   0   2.0000     -20.367900      -554.2387 
   1   2.0000     -11.296613      -307.3965 
   2   2.0000     -11.192826      -304.5723 
   3   2.0000     -11.183007      -304.3051 
   4   2.0000      -1.401407       -38.1342 
   5   2.0000      -1.055917       -28.7330 
   6   2.0000      -0.895378       -24.3645 
   7   2.0000      -0.735347       -20.0098 
   8   2.0000      -0.672463       -18.2986 
   9   2.0000      -0.619520       -16.8580 
  10   2.0000      -0.606763       -16.5109 
  11   2.0000      -0.548527       -14.9262 
  12   2.0000      -0.492918       -13.4130 
  13   2.0000      -0.404617       -11.0102 
  14   2.0000      -0.380829       -10.3629 
  15   0.0000       0.151773         4.1300 
  16   0.0000       0.237601         6.4655 
  17   0.0000       0.498734        13.5712 
  18   0.0000       0.536500        14.5989 
  19   0.0000       0.640780        17.4365 
  20   0.0000       0.743017        20.2185 
  21   0.0000       0.834231        22.7006 
  22   0.0000       0.913958        24.8701 
  23   0.0000       0.952924        25.9304 

                    ********************************
                    * MULLIKEN POPULATION ANALYSIS *
                    ********************************

-----------------------
MULLIKEN ATOMIC CHARGES
-----------------------
   0 C :    0.169800
   1 O :   -0.348386
   2 C :   -0.139644
   3 C :   -0.250792
   4 H :    0.136656
   5 H :    0.147066
   6 H :    0.140259
   7 H :    0.145041
Sum of atomic charges:   -0.0000000

--------------------------------
MULLIKEN REDUCED ORBITAL CHARGES
--------------------------------
  0 C s       :     3.080184  s :     3.080184
      pz      :     0.910077  p :     2.750016
      px      :     1.006361
      py      :     0.833578
  1 O s       :     3.836186  s :     3.836186
      pz      :     1.382138  p :     4.512200
      px      :     1.766920
      py      :     1.363141
  2 C s       :     3.106201  s :     3.106201
      pz      :     1.010493  p :     3.033442
      px      :     0.980536
      py      :     1.042414
  3 C s       :     3.129382  s :     3.129382
      pz      :     1.005748  p :     3.121411
      px      :     1.034206
      py      :     1.081457
  4 H s       :     0.863344  s :     0.863344
  5 H s       :     0.852934  s :     0.852934
  6 H s       :     0.859741  s :     0.859741
  7 H s       :     0.854959  s :     0.854959


                     *******************************
                     * LOEWDIN POPULATION ANALYSIS *
                     *******************************

----------------------
LOEWDIN ATOMIC CHARGES
----------------------
   0 C :    0.141858
   1 O :   -0.253617
   2 C :   -0.103691
   3 C :   -0.152185
   4 H :    0.084469
   5 H :    0.104859
   6 H :    0.082958
   7 H :    0.095349

-------------------------------
LOEWDIN REDUCED ORBITAL CHARGES
-------------------------------
  0 C s       :     3.008017  s :     3.008017
      pz      :     0.921378  p :     2.850125
      px      :     1.022620
      py      :     0.906127
  1 O s       :     3.704631  s :     3.704631
      pz      :     1.387157  p :     4.548986
      px      :     1.768202
      py      :     1.393627
  2 C s       :     3.002836  s :     3.002836
      pz      :     1.011856  p :     3.100855
      px      :     1.034718
      py      :     1.054280
  3 C s       :     2.994739  s :     2.994739
      pz      :     1.008717  p :     3.157446
      px      :     1.064526
      py      :     1.084204
  4 H s       :     0.915531  s :     0.915531
  5 H s       :     0.895141  s :     0.895141
  6 H s       :     0.917042  s :     0.917042
  7 H s       :     0.904651  s :     0.904651


                      *****************************
                      * MAYER POPULATION ANALYSIS *
                      *****************************

  NA   - Mulliken gross atomic population
  ZA   - Total nuclear charge
  QA   - Mulliken gross atomic charge
  VA   - Mayer's total valence
  BVA  - Mayer's bonded valence
  FA   - Mayer's free valence

  ATOM       NA         ZA         QA         VA         BVA        FA
  0 C      5.8302     6.0000     0.1698     3.8643     3.8643    -0.0000
  1 O      8.3484     8.0000    -0.3484     2.0686     2.0686    -0.0000
  2 C      6.1396     6.0000    -0.1396     3.9750     3.9750    -0.0000
  3 C      6.2508     6.0000    -0.2508     3.9563     3.9563    -0.0000
  4 H      0.8633     1.0000     0.1367     0.9813     0.9813    -0.0000
  5 H      0.8529     1.0000     0.1471     0.9784     0.9784    -0.0000
  6 H      0.8597     1.0000     0.1403     0.9803     0.9803     0.0000
  7 H      0.8550     1.0000     0.1450     0.9790     0.9790    -0.0000

  Mayer bond orders larger than 0.100000
B(  0-C ,  1-O ) :   1.9271 B(  0-C ,  2-C ) :   1.0227 B(  0-C ,  4-H ) :   0.9010 
B(  2-C ,  3-C ) :   1.9670 B(  2-C ,  5-H ) :   0.9448 B(  3-C ,  6-H ) :   0.9695 
B(  3-C ,  7-H ) :   0.9663 

-------
TIMINGS
-------

Total SCF time: 0 days 0 hours 0 min 3 sec 

Total time                  ....       3.987 sec
Sum of individual times     ....       0.984 sec  ( 24.7%)

Fock matrix formation       ....       0.100 sec  (  2.5%)
Diagonalization             ....       0.001 sec  (  0.0%)
Density matrix formation    ....       0.000 sec  (  0.0%)
Population analysis         ....       0.661 sec  ( 16.6%)
Initial guess               ....       0.002 sec  (  0.0%)
Orbital Transformation      ....       0.000 sec  (  0.0%)
Orbital Orthonormalization  ....       0.000 sec  (  0.0%)
DIIS solution               ....       0.001 sec  (  0.0%)
SOSCF solution              ....       0.218 sec  (  5.5%)

Maximum memory used throughout the entire SCF-calculation: 224.9 MB
------------------------------------------------------------------------------
                         ORCA CIS CALCULATION
------------------------------------------------------------------------------

Input orbitals are from        ... acrolien.452.gbw
CI-vector output               ... acrolien.452.cis
Tamm-Dancoff approximation     ... operative
CIS-Integral strategy          ... AO-integrals
Integral handling              ... AO integral Conventional
Reference state                ... RHF
Generation of triplets         ... off
Follow IRoot                   ... off
Number of operators            ... 1
Orbital ranges used for CIS calculation:
 Operator 0:  Orbitals   4... 14  to  15... 23
XAS localization array:
 Operator 0:  Orbitals  -1... -1

------------------------
DAVIDSON-DIAGONALIZATION
------------------------

Dimension of the eigenvalue problem            ...     99
Number of roots to be determined               ...      1
Maximum size of the expansion space            ...     10
Maximum number of iterations                   ...    100
Convergence tolerance for the residual         ...    2.500e-07
Convergence tolerance for the energies         ...    2.500e-07
Orthogonality tolerance                        ...    1.000e-14
Level Shift                                    ...    0.000e+00
Constructing the preconditioner                ... o.k.
Building the initial guess                     ... o.k.
Number of trial vectors determined             ...     10


                       ****Iteration    0****

   Memory handling for direct AO based CIS:
   Memory per vector needed      ...     1 MB
   Memory needed                 ...     0 MB
   Memory available              ...   512 MB
   Number of vectors per batch   ...   512
   Number of batches             ...     1
   Time for densities:            0.001
   SHARK[4]
   Time for Sigma-Completion:     0.000
   Size of expansion space: 3
   Lowest Energy          :     0.238307016856
   Maximum Energy change  :     0.238307016856 (vector 0)
   Maximum residual norm  :     0.015027439775

                       ****Iteration    1****
   Time for densities:            0.000
   SHARK[4]
   Time for Sigma-Completion:     0.000
   Size of expansion space: 4
   Lowest Energy          :     0.163470553021
   Maximum Energy change  :     0.074836463835 (vector 0)
   Maximum residual norm  :     0.003447138157

                       ****Iteration    2****
   Time for densities:            0.000
   SHARK[4]
   Time for Sigma-Completion:     0.000
   Size of expansion space: 5
   Lowest Energy          :     0.154771762353
   Maximum Energy change  :     0.008698790668 (vector 0)
   Maximum residual norm  :     0.000675317765

                       ****Iteration    3****
   Time for densities:            0.000
   SHARK[4]
   Time for Sigma-Completion:     0.000
   Size of expansion space: 6
   Lowest Energy          :     0.153947499356
   Maximum Energy change  :     0.000824262997 (vector 0)
   Maximum residual norm  :     0.000035847324

                       ****Iteration    4****
   Time for densities:            0.000
   SHARK[4]
   Time for Sigma-Completion:     0.000
   Size of expansion space: 7
   Lowest Energy          :     0.153886098912
   Maximum Energy change  :     0.000061400444 (vector 0)
   Maximum residual norm  :     0.000002016407

                       ****Iteration    5****
   Time for densities:            0.000
   SHARK[4]
   Time for Sigma-Completion:     0.000
   Size of expansion space: 8
   Lowest Energy          :     0.153882491894
   Maximum Energy change  :     0.000003607018 (vector 0)
   Maximum residual norm  :     0.000000142867

      *** CONVERGENCE OF RESIDUAL NORM REACHED ***

Storing the converged CI vectors               ... acrolien.452.cis1

                 *** DAVIDSON DONE ***

Total time for solving the CIS problem:     1.461sec

-----------------------------
CIS-EXCITED STATES (SINGLETS)
-----------------------------

the weight of the individual excitations are printed if larger than 1.0e-02

STATE  1:  E=   0.153882 au      4.187 eV    33773.3 cm**-1 <S**2> =   0.000000
     8a ->  15a  :     0.011889 (c=  0.10903621)
     8a ->  16a  :     0.010676 (c=  0.10332424)
    11a ->  16a  :     0.010907 (c=  0.10443812)
    13a ->  15a  :     0.618464 (c=  0.78642457)
    13a ->  16a  :     0.305458 (c=  0.55268282)


----------------------
CIS-EXCITATION SPECTRA
----------------------

Center of mass = ( -0.6906, -0.6957, -0.2633)
Calculating the Dipole integrals                  ... done
Transforming integrals                            ... done
Calculating the Linear Momentum integrals         ... done
Transforming integrals                            ... done
Calculating angular momentum integrals            ... done
Transforming integrals                            ... done

-----------------------------------------------------------------------------
         ABSORPTION SPECTRUM VIA TRANSITION ELECTRIC DIPOLE MOMENTS
-----------------------------------------------------------------------------
State   Energy    Wavelength  fosc         T2        TX        TY        TZ  
        (cm-1)      (nm)                 (au**2)    (au)      (au)      (au) 
-----------------------------------------------------------------------------
   1   33773.3    296.1   0.000016315   0.00016  -0.00130  -0.01250   0.00105

-----------------------------------------------------------------------------
         ABSORPTION SPECTRUM VIA TRANSITION VELOCITY DIPOLE MOMENTS
-----------------------------------------------------------------------------
State   Energy    Wavelength   fosc        P2         PX        PY        PZ  
        (cm-1)      (nm)                 (au**2)     (au)      (au)      (au) 
-----------------------------------------------------------------------------
   1   33773.3    296.1   0.000693860   0.00016  -0.00028  -0.00647   0.01087

-------------------------------------------------------------------
                             CD SPECTRUM
-------------------------------------------------------------------
State  Energy     Wavelength     R         MX        MY        MZ   
       (cm-1)       (nm)     (1e40*cgs)   (au)      (au)      (au)  
-------------------------------------------------------------------
   1   33773.3    296.1      2.68343  -0.12194  -0.46476  -0.26366

-------------------------------------------------------------------
         CD SPECTRUM VIA TRANSITION VELOCITY DIPOLE MOMENTS        
-------------------------------------------------------------------
State  Energy     Wavelength     R         MX        MY        MZ   
       (cm-1)       (nm)     (1e40*cgs)   (au)      (au)      (au)  
-------------------------------------------------------------------
   1   33773.3    296.1      0.52617  -0.12194  -0.46476  -0.26366

Total run time:        2.932 sec

           *** ORCA-CIS/TD-DFT FINISHED WITHOUT ERROR ***

Maximum memory used throughout the entire CIS-calculation: 51.7 MB

-----------------------
CIS/TD-DFT TOTAL ENERGY
-----------------------

    E(SCF)  =   -189.377342027 Eh
    DE(CIS) =      0.153882492 Eh (Root  1)
    ----------------------------- ---------
    E(tot)  =   -189.223459536 Eh



-------------------------------------------------------------------------------
                          DFT DISPERSION CORRECTION                            
                                                                               
                              DFTD3 V3.1  Rev 1                                
                          USING Becke-Johnson damping                          
-------------------------------------------------------------------------------
Hartree-Fock is recognized
Active option DFTDOPT                   ...         4   

molecular C6(AA) [au] = 663.195244 


            DFT-D V3
 parameters
 using HF/MINIX parameters
 s6 scaling factor         :     1.0000 
 a1 scaling factor         :     0.4171 
 s8 scaling factor         :     0.8777 
 a2 scaling factor         :     2.9149 
 ad hoc parameters k1-k3   :    16.0000     1.3333    -4.0000 

 Edisp/kcal,au: -15.380045042682  -0.024509659277 
 E6   /kcal   :  -8.525931612 
 E8   /kcal   :  -6.854113431 
 % E8         :  44.564976318 

-------------------------   ----------------
Dispersion correction           -0.024509659
-------------------------   ----------------

------------------   -----------------
gCP+bas correction        -0.047376206
------------------   -----------------
----------------------------   ----------------
Total correction to HF/MINIX       -0.071885866
----------------------------   ----------------


-------------------------   --------------------
FINAL SINGLE POINT ENERGY      -189.295345401175
-------------------------   --------------------


                            ***************************************
                            *     ORCA property calculations      *
                            ***************************************

                                    ---------------------
                                    Active property flags
                                    ---------------------
   (+) Dipole Moment


------------------------------------------------------------------------------
                       ORCA ELECTRIC PROPERTIES CALCULATION
------------------------------------------------------------------------------

Dipole Moment Calculation                       ... on
Quadrupole Moment Calculation                   ... off
Polarizability Calculation                      ... off
GBWName                                         ... acrolien.452.gbw
Electron density                                ... acrolien.452.scfp
The origin for moment calculation is the CENTER OF MASS  = (-0.690591, -0.695731 -0.263316)

-------------
DIPOLE MOMENT
-------------
                                X             Y             Z
Electronic contribution:     -2.35739      -1.69482      -0.59054
Nuclear contribution   :      2.62774       2.64375       0.96946
                        -----------------------------------------
Total Dipole Moment    :      0.27035       0.94892       0.37893
                        -----------------------------------------
Magnitude (a.u.)       :      1.05694
Magnitude (Debye)      :      2.68654



--------------------
Rotational spectrum 
--------------------
 
Rotational constants in cm-1:     0.830041     0.179176     0.156393 
Rotational constants in MHz : 24884.000358  5371.565640  4688.546242 

 Dipole components along the rotational axes: 
x,y,z [a.u.] :    -0.717285    -0.741961    -0.228314 
x,y,z [Debye]:    -1.823194    -1.885915    -0.580327 

 

Timings for individual modules:

Sum of individual times         ...        8.873 sec (=   0.148 min)
GTO integral calculation        ...        0.958 sec (=   0.016 min)  10.8 %
SCF iterations                  ...        4.781 sec (=   0.080 min)  53.9 %
CIS module                      ...        3.134 sec (=   0.052 min)  35.3 %
                             ****ORCA TERMINATED NORMALLY****
TOTAL RUN TIME: 0 days 0 hours 0 minutes 10 seconds 397 msec
